# Wall shear stress
# Time          	patch           	min             	max             
0.5             	top_wall	(-3.43666132e-01 8.77732732e-27 0.00000000e+00)	(-3.43666132e-01 8.77732732e-27 0.00000000e+00)
0.5             	bot_wall	(-3.43666136e-01 -2.90341165e-17 0.00000000e+00)	(-3.43666136e-01 -2.90341165e-17 0.00000000e+00)
1               	top_wall	(-2.53897905e-01 1.33072709e-26 0.00000000e+00)	(-2.53897905e-01 1.33072709e-26 0.00000000e+00)
1               	bot_wall	(-2.53897910e-01 5.08604695e-17 0.00000000e+00)	(-2.53897910e-01 5.08604695e-17 0.00000000e+00)
1.5             	top_wall	(-2.14638868e-01 1.37922367e-26 0.00000000e+00)	(-2.14638868e-01 1.37922367e-26 0.00000000e+00)
1.5             	bot_wall	(-2.14638872e-01 4.10276670e-17 0.00000000e+00)	(-2.14638872e-01 4.10276670e-17 0.00000000e+00)
2               	top_wall	(-1.91482685e-01 3.07164744e-26 0.00000000e+00)	(-1.91482685e-01 3.07164744e-26 0.00000000e+00)
2               	bot_wall	(-1.91482689e-01 6.28151730e-18 0.00000000e+00)	(-1.91482689e-01 6.28151730e-18 0.00000000e+00)
2.5             	top_wall	(-1.75840714e-01 3.60877813e-26 0.00000000e+00)	(-1.75840714e-01 3.60877813e-26 0.00000000e+00)
2.5             	bot_wall	(-1.75840719e-01 2.45471977e-17 0.00000000e+00)	(-1.75840719e-01 2.45471977e-17 0.00000000e+00)
3               	top_wall	(-1.64412063e-01 4.12097330e-26 0.00000000e+00)	(-1.64412063e-01 4.12097330e-26 0.00000000e+00)
3               	bot_wall	(-1.64412067e-01 2.35946277e-17 0.00000000e+00)	(-1.64412067e-01 2.35946277e-17 0.00000000e+00)
3.5             	top_wall	(-1.55621985e-01 3.23382136e-26 0.00000000e+00)	(-1.55621985e-01 3.23382136e-26 0.00000000e+00)
3.5             	bot_wall	(-1.55621989e-01 4.39521175e-17 0.00000000e+00)	(-1.55621989e-01 4.39521175e-17 0.00000000e+00)
4               	top_wall	(-1.48611906e-01 2.36344386e-26 0.00000000e+00)	(-1.48611906e-01 2.36344386e-26 0.00000000e+00)
4               	bot_wall	(-1.48611911e-01 7.39713595e-17 0.00000000e+00)	(-1.48611911e-01 7.39713595e-17 0.00000000e+00)
4.5             	top_wall	(-1.42868848e-01 2.38547230e-26 0.00000000e+00)	(-1.42868848e-01 2.38547230e-26 0.00000000e+00)
4.5             	bot_wall	(-1.42868853e-01 4.59318626e-17 0.00000000e+00)	(-1.42868853e-01 4.59318626e-17 0.00000000e+00)
5               	top_wall	(-1.38065026e-01 1.85496616e-26 0.00000000e+00)	(-1.38065026e-01 1.85496616e-26 0.00000000e+00)
5               	bot_wall	(-1.38065030e-01 4.28582915e-17 0.00000000e+00)	(-1.38065030e-01 4.28582915e-17 0.00000000e+00)
5.5             	top_wall	(-1.33979982e-01 6.39070367e-27 0.00000000e+00)	(-1.33979982e-01 6.39070367e-27 0.00000000e+00)
5.5             	bot_wall	(-1.33979986e-01 5.37703237e-17 0.00000000e+00)	(-1.33979986e-01 5.37703237e-17 0.00000000e+00)
6               	top_wall	(-1.30459294e-01 -5.45220010e-26 0.00000000e+00)	(-1.30459294e-01 -5.45220010e-26 0.00000000e+00)
6               	bot_wall	(-1.30459298e-01 7.32862882e-17 0.00000000e+00)	(-1.30459298e-01 7.32862882e-17 0.00000000e+00)
6.5             	top_wall	(-1.27391188e-01 -2.01591351e-25 0.00000000e+00)	(-1.27391188e-01 -2.01591351e-25 0.00000000e+00)
6.5             	bot_wall	(-1.27391192e-01 7.32078491e-17 0.00000000e+00)	(-1.27391192e-01 7.32078491e-17 0.00000000e+00)
7               	top_wall	(-1.24692471e-01 -4.94655516e-25 0.00000000e+00)	(-1.24692471e-01 -4.94655516e-25 0.00000000e+00)
7               	bot_wall	(-1.24692475e-01 8.69444933e-17 0.00000000e+00)	(-1.24692475e-01 8.69444933e-17 0.00000000e+00)
7.5             	top_wall	(-1.22299861e-01 -1.01098200e-24 0.00000000e+00)	(-1.22299861e-01 -1.01098200e-24 0.00000000e+00)
7.5             	bot_wall	(-1.22299865e-01 5.33045919e-17 0.00000000e+00)	(-1.22299865e-01 5.33045919e-17 0.00000000e+00)
8               	top_wall	(-1.20164166e-01 -1.81970364e-24 0.00000000e+00)	(-1.20164166e-01 -1.81970364e-24 0.00000000e+00)
8               	bot_wall	(-1.20164170e-01 3.61423882e-17 0.00000000e+00)	(-1.20164170e-01 3.61423882e-17 0.00000000e+00)
8.5             	top_wall	(-1.18246611e-01 -2.91558532e-24 0.00000000e+00)	(-1.18246611e-01 -2.91558532e-24 0.00000000e+00)
8.5             	bot_wall	(-1.18246616e-01 6.95322492e-17 0.00000000e+00)	(-1.18246616e-01 6.95322492e-17 0.00000000e+00)
9               	top_wall	(-1.16516048e-01 -4.24677118e-24 0.00000000e+00)	(-1.16516048e-01 -4.24677118e-24 0.00000000e+00)
9               	bot_wall	(-1.16516052e-01 7.05901215e-17 0.00000000e+00)	(-1.16516052e-01 7.05901215e-17 0.00000000e+00)
9.5             	top_wall	(-1.14947264e-01 -5.58903958e-24 0.00000000e+00)	(-1.14947264e-01 -5.58903958e-24 0.00000000e+00)
9.5             	bot_wall	(-1.14947268e-01 8.94029590e-17 0.00000000e+00)	(-1.14947268e-01 8.94029590e-17 0.00000000e+00)
10              	top_wall	(-1.13519468e-01 -6.56906706e-24 0.00000000e+00)	(-1.13519468e-01 -6.56906706e-24 0.00000000e+00)
10              	bot_wall	(-1.13519472e-01 5.10502988e-17 0.00000000e+00)	(-1.13519472e-01 5.10502988e-17 0.00000000e+00)
10.5            	top_wall	(-1.12215490e-01 -6.60213274e-24 0.00000000e+00)	(-1.12215490e-01 -6.60213274e-24 0.00000000e+00)
10.5            	bot_wall	(-1.12215494e-01 3.54639980e-17 0.00000000e+00)	(-1.12215494e-01 3.54639980e-17 0.00000000e+00)
11              	top_wall	(-1.11020859e-01 -4.92352740e-24 0.00000000e+00)	(-1.11020859e-01 -4.92352740e-24 0.00000000e+00)
11              	bot_wall	(-1.11020864e-01 3.72949778e-17 0.00000000e+00)	(-1.11020864e-01 3.72949778e-17 0.00000000e+00)
11.5            	top_wall	(-1.09923436e-01 -5.26788541e-25 0.00000000e+00)	(-1.09923436e-01 -5.26788541e-25 0.00000000e+00)
11.5            	bot_wall	(-1.09923441e-01 3.88788220e-18 0.00000000e+00)	(-1.09923441e-01 3.88788220e-18 0.00000000e+00)
12              	top_wall	(-1.08912800e-01 7.74632045e-24 0.00000000e+00)	(-1.08912800e-01 7.74632045e-24 0.00000000e+00)
12              	bot_wall	(-1.08912804e-01 -2.19335860e-18 0.00000000e+00)	(-1.08912804e-01 -2.19335860e-18 0.00000000e+00)
12.5            	top_wall	(-1.07980093e-01 2.12319491e-23 0.00000000e+00)	(-1.07980093e-01 2.12319491e-23 0.00000000e+00)
12.5            	bot_wall	(-1.07980097e-01 2.68626070e-17 0.00000000e+00)	(-1.07980097e-01 2.68626070e-17 0.00000000e+00)
13              	top_wall	(-1.07117593e-01 4.13635016e-23 0.00000000e+00)	(-1.07117593e-01 4.13635016e-23 0.00000000e+00)
13              	bot_wall	(-1.07117598e-01 -2.88340194e-17 0.00000000e+00)	(-1.07117598e-01 -2.88340194e-17 0.00000000e+00)
13.5            	top_wall	(-1.06318663e-01 6.96510314e-23 0.00000000e+00)	(-1.06318663e-01 6.96510314e-23 0.00000000e+00)
13.5            	bot_wall	(-1.06318667e-01 2.02157987e-17 0.00000000e+00)	(-1.06318667e-01 2.02157987e-17 0.00000000e+00)
14              	top_wall	(-1.05577437e-01 1.07572505e-22 0.00000000e+00)	(-1.05577437e-01 1.07572505e-22 0.00000000e+00)
14              	bot_wall	(-1.05577441e-01 2.74965520e-17 0.00000000e+00)	(-1.05577441e-01 2.74965520e-17 0.00000000e+00)
14.5            	top_wall	(-1.04888821e-01 1.56606462e-22 0.00000000e+00)	(-1.04888821e-01 1.56606462e-22 0.00000000e+00)
14.5            	bot_wall	(-1.04888826e-01 3.43402248e-17 0.00000000e+00)	(-1.04888826e-01 3.43402248e-17 0.00000000e+00)
15              	top_wall	(-1.04248267e-01 2.18085816e-22 0.00000000e+00)	(-1.04248267e-01 2.18085816e-22 0.00000000e+00)
15              	bot_wall	(-1.04248271e-01 4.75790907e-17 0.00000000e+00)	(-1.04248271e-01 4.75790907e-17 0.00000000e+00)
15.5            	top_wall	(-1.03651778e-01 2.93248627e-22 0.00000000e+00)	(-1.03651778e-01 2.93248627e-22 0.00000000e+00)
15.5            	bot_wall	(-1.03651783e-01 4.16364447e-18 0.00000000e+00)	(-1.03651783e-01 4.16364447e-18 0.00000000e+00)
16              	top_wall	(-1.03095765e-01 3.83144145e-22 0.00000000e+00)	(-1.03095765e-01 3.83144145e-22 0.00000000e+00)
16              	bot_wall	(-1.03095769e-01 2.08907070e-17 0.00000000e+00)	(-1.03095769e-01 2.08907070e-17 0.00000000e+00)
16.5            	top_wall	(-1.02577024e-01 4.88647340e-22 0.00000000e+00)	(-1.02577024e-01 4.88647340e-22 0.00000000e+00)
16.5            	bot_wall	(-1.02577029e-01 1.50481640e-17 0.00000000e+00)	(-1.02577029e-01 1.50481640e-17 0.00000000e+00)
17              	top_wall	(-1.02092690e-01 6.10457928e-22 0.00000000e+00)	(-1.02092690e-01 6.10457928e-22 0.00000000e+00)
17              	bot_wall	(-1.02092695e-01 1.98569785e-18 0.00000000e+00)	(-1.02092695e-01 1.98569785e-18 0.00000000e+00)
17.5            	top_wall	(-1.01640138e-01 7.49089505e-22 0.00000000e+00)	(-1.01640138e-01 7.49089505e-22 0.00000000e+00)
17.5            	bot_wall	(-1.01640143e-01 2.74432574e-17 0.00000000e+00)	(-1.01640143e-01 2.74432574e-17 0.00000000e+00)
18              	top_wall	(-1.01217058e-01 9.04881422e-22 0.00000000e+00)	(-1.01217058e-01 9.04881422e-22 0.00000000e+00)
18              	bot_wall	(-1.01217062e-01 4.13698039e-17 0.00000000e+00)	(-1.01217062e-01 4.13698039e-17 0.00000000e+00)
18.5            	top_wall	(-1.00821265e-01 1.07800655e-21 0.00000000e+00)	(-1.00821265e-01 1.07800655e-21 0.00000000e+00)
18.5            	bot_wall	(-1.00821270e-01 1.67378664e-17 0.00000000e+00)	(-1.00821270e-01 1.67378664e-17 0.00000000e+00)
19              	top_wall	(-1.00450857e-01 1.26846255e-21 0.00000000e+00)	(-1.00450857e-01 1.26846255e-21 0.00000000e+00)
19              	bot_wall	(-1.00450862e-01 2.12944901e-17 0.00000000e+00)	(-1.00450862e-01 2.12944901e-17 0.00000000e+00)
19.5            	top_wall	(-1.00104016e-01 1.47609518e-21 0.00000000e+00)	(-1.00104016e-01 1.47609518e-21 0.00000000e+00)
19.5            	bot_wall	(-1.00104021e-01 3.03016722e-17 0.00000000e+00)	(-1.00104021e-01 3.03016722e-17 0.00000000e+00)
20              	top_wall	(-9.97791455e-02 1.70062541e-21 0.00000000e+00)	(-9.97791455e-02 1.70062541e-21 0.00000000e+00)
20              	bot_wall	(-9.97791503e-02 2.29596589e-17 0.00000000e+00)	(-9.97791503e-02 2.29596589e-17 0.00000000e+00)
20.5            	top_wall	(-9.94747214e-02 1.94161159e-21 0.00000000e+00)	(-9.94747214e-02 1.94161159e-21 0.00000000e+00)
20.5            	bot_wall	(-9.94747262e-02 1.97079107e-18 0.00000000e+00)	(-9.94747262e-02 1.97079107e-18 0.00000000e+00)
21              	top_wall	(-9.91893870e-02 2.19853229e-21 0.00000000e+00)	(-9.91893870e-02 2.19853229e-21 0.00000000e+00)
21              	bot_wall	(-9.91893917e-02 3.67782717e-17 0.00000000e+00)	(-9.91893917e-02 3.67782717e-17 0.00000000e+00)
21.5            	top_wall	(-9.89218585e-02 2.47072640e-21 0.00000000e+00)	(-9.89218585e-02 2.47072640e-21 0.00000000e+00)
21.5            	bot_wall	(-9.89218633e-02 4.33830985e-17 0.00000000e+00)	(-9.89218633e-02 4.33830985e-17 0.00000000e+00)
22              	top_wall	(-9.86709646e-02 2.75746561e-21 0.00000000e+00)	(-9.86709646e-02 2.75746561e-21 0.00000000e+00)
22              	bot_wall	(-9.86709694e-02 3.44967648e-17 0.00000000e+00)	(-9.86709694e-02 3.44967648e-17 0.00000000e+00)
22.5            	top_wall	(-9.84356298e-02 3.05792614e-21 0.00000000e+00)	(-9.84356298e-02 3.05792614e-21 0.00000000e+00)
22.5            	bot_wall	(-9.84356346e-02 1.88438239e-17 0.00000000e+00)	(-9.84356346e-02 1.88438239e-17 0.00000000e+00)
23              	top_wall	(-9.82148211e-02 3.37121719e-21 0.00000000e+00)	(-9.82148211e-02 3.37121719e-21 0.00000000e+00)
23              	bot_wall	(-9.82148259e-02 3.46155415e-17 0.00000000e+00)	(-9.82148259e-02 3.46155415e-17 0.00000000e+00)
23.5            	top_wall	(-9.80076445e-02 3.69638177e-21 0.00000000e+00)	(-9.80076445e-02 3.69638177e-21 0.00000000e+00)
23.5            	bot_wall	(-9.80076494e-02 3.13090020e-17 0.00000000e+00)	(-9.80076494e-02 3.13090020e-17 0.00000000e+00)
24              	top_wall	(-9.78131847e-02 4.03241978e-21 0.00000000e+00)	(-9.78131847e-02 4.03241978e-21 0.00000000e+00)
24              	bot_wall	(-9.78131896e-02 2.80410890e-17 0.00000000e+00)	(-9.78131896e-02 2.80410890e-17 0.00000000e+00)
24.5            	top_wall	(-9.76306744e-02 4.37834761e-21 0.00000000e+00)	(-9.76306744e-02 4.37834761e-21 0.00000000e+00)
24.5            	bot_wall	(-9.76306793e-02 4.01076410e-17 0.00000000e+00)	(-9.76306793e-02 4.01076410e-17 0.00000000e+00)
25              	top_wall	(-9.74593242e-02 3.18285184e-21 0.00000000e+00)	(-9.74593242e-02 3.18285184e-21 0.00000000e+00)
25              	bot_wall	(-9.74593292e-02 1.30289479e-17 0.00000000e+00)	(-9.74593292e-02 1.30289479e-17 0.00000000e+00)
25.5            	top_wall	(-9.72984621e-02 4.15432365e-21 0.00000000e+00)	(-9.72984621e-02 4.15432365e-21 0.00000000e+00)
25.5            	bot_wall	(-9.72984671e-02 1.88812152e-17 0.00000000e+00)	(-9.72984671e-02 1.88812152e-17 0.00000000e+00)
26              	top_wall	(-9.71474091e-02 2.78041558e-21 0.00000000e+00)	(-9.71474091e-02 2.78041558e-21 0.00000000e+00)
26              	bot_wall	(-9.71474141e-02 1.20448715e-17 0.00000000e+00)	(-9.71474141e-02 1.20448715e-17 0.00000000e+00)
26.5            	top_wall	(-9.70055693e-02 4.20061280e-21 0.00000000e+00)	(-9.70055693e-02 4.20061280e-21 0.00000000e+00)
26.5            	bot_wall	(-9.70055742e-02 2.88619170e-17 0.00000000e+00)	(-9.70055742e-02 2.88619170e-17 0.00000000e+00)
27              	top_wall	(-9.68723638e-02 3.31385551e-21 0.00000000e+00)	(-9.68723638e-02 3.31385551e-21 0.00000000e+00)
27              	bot_wall	(-9.68723688e-02 1.17042445e-17 0.00000000e+00)	(-9.68723688e-02 1.17042445e-17 0.00000000e+00)
27.5            	top_wall	(-9.67472469e-02 4.50225625e-21 0.00000000e+00)	(-9.67472469e-02 4.50225625e-21 0.00000000e+00)
27.5            	bot_wall	(-9.67472519e-02 1.20728031e-17 0.00000000e+00)	(-9.67472519e-02 1.20728031e-17 0.00000000e+00)
28              	top_wall	(-9.66297573e-02 4.00657823e-21 0.00000000e+00)	(-9.66297573e-02 4.00657823e-21 0.00000000e+00)
28              	bot_wall	(-9.66297623e-02 1.91872314e-17 0.00000000e+00)	(-9.66297623e-02 1.91872314e-17 0.00000000e+00)
28.5            	top_wall	(-9.65193768e-02 3.28189449e-21 0.00000000e+00)	(-9.65193768e-02 3.28189449e-21 0.00000000e+00)
28.5            	bot_wall	(-9.65193818e-02 3.22018357e-17 0.00000000e+00)	(-9.65193818e-02 3.22018357e-17 0.00000000e+00)
29              	top_wall	(-9.64157124e-02 1.31906401e-21 0.00000000e+00)	(-9.64157124e-02 1.31906401e-21 0.00000000e+00)
29              	bot_wall	(-9.64157175e-02 2.70851968e-17 0.00000000e+00)	(-9.64157175e-02 2.70851968e-17 0.00000000e+00)
29.5            	top_wall	(-9.63183135e-02 4.36770789e-21 0.00000000e+00)	(-9.63183135e-02 4.36770789e-21 0.00000000e+00)
29.5            	bot_wall	(-9.63183185e-02 1.50062152e-17 0.00000000e+00)	(-9.63183185e-02 1.50062152e-17 0.00000000e+00)
30              	top_wall	(-9.62268299e-02 4.04196708e-21 0.00000000e+00)	(-9.62268299e-02 4.04196708e-21 0.00000000e+00)
30              	bot_wall	(-9.62268350e-02 2.59412205e-17 0.00000000e+00)	(-9.62268350e-02 2.59412205e-17 0.00000000e+00)
30.5            	top_wall	(-9.61408728e-02 3.67677255e-21 0.00000000e+00)	(-9.61408728e-02 3.67677255e-21 0.00000000e+00)
30.5            	bot_wall	(-9.61408779e-02 9.67167946e-18 0.00000000e+00)	(-9.61408779e-02 9.67167946e-18 0.00000000e+00)
31              	top_wall	(-9.60601257e-02 3.25895755e-21 0.00000000e+00)	(-9.60601257e-02 3.25895755e-21 0.00000000e+00)
31              	bot_wall	(-9.60601308e-02 3.62516458e-17 0.00000000e+00)	(-9.60601308e-02 3.62516458e-17 0.00000000e+00)
31.5            	top_wall	(-9.59842576e-02 2.79224034e-21 0.00000000e+00)	(-9.59842576e-02 2.79224034e-21 0.00000000e+00)
31.5            	bot_wall	(-9.59842628e-02 3.41029253e-17 0.00000000e+00)	(-9.59842628e-02 3.41029253e-17 0.00000000e+00)
32              	top_wall	(-9.59129744e-02 2.22228469e-21 0.00000000e+00)	(-9.59129744e-02 2.22228469e-21 0.00000000e+00)
32              	bot_wall	(-9.59129795e-02 2.00658741e-17 0.00000000e+00)	(-9.59129795e-02 2.00658741e-17 0.00000000e+00)
32.5            	top_wall	(-9.58460082e-02 1.64547089e-21 0.00000000e+00)	(-9.58460082e-02 1.64547089e-21 0.00000000e+00)
32.5            	bot_wall	(-9.58460133e-02 1.43539283e-17 0.00000000e+00)	(-9.58460133e-02 1.43539283e-17 0.00000000e+00)
33              	top_wall	(-9.57830727e-02 1.04109649e-21 0.00000000e+00)	(-9.57830727e-02 1.04109649e-21 0.00000000e+00)
33              	bot_wall	(-9.57830779e-02 2.59075161e-17 0.00000000e+00)	(-9.57830779e-02 2.59075161e-17 0.00000000e+00)
33.5            	top_wall	(-9.57239596e-02 8.33954786e-22 0.00000000e+00)	(-9.57239596e-02 8.33954786e-22 0.00000000e+00)
33.5            	bot_wall	(-9.57239647e-02 2.22672680e-17 0.00000000e+00)	(-9.57239647e-02 2.22672680e-17 0.00000000e+00)
34              	top_wall	(-9.56683975e-02 1.04741064e-21 0.00000000e+00)	(-9.56683975e-02 1.04741064e-21 0.00000000e+00)
34              	bot_wall	(-9.56684027e-02 3.72509538e-17 0.00000000e+00)	(-9.56684027e-02 3.72509538e-17 0.00000000e+00)
34.5            	top_wall	(-9.56162052e-02 1.41244806e-21 0.00000000e+00)	(-9.56162052e-02 1.41244806e-21 0.00000000e+00)
34.5            	bot_wall	(-9.56162104e-02 4.13126359e-17 0.00000000e+00)	(-9.56162104e-02 4.13126359e-17 0.00000000e+00)
35              	top_wall	(-9.55671504e-02 2.01635028e-21 0.00000000e+00)	(-9.55671504e-02 2.01635028e-21 0.00000000e+00)
35              	bot_wall	(-9.55671556e-02 3.93889048e-17 0.00000000e+00)	(-9.55671556e-02 3.93889048e-17 0.00000000e+00)
35.5            	top_wall	(-9.55210647e-02 2.50899636e-21 0.00000000e+00)	(-9.55210647e-02 2.50899636e-21 0.00000000e+00)
35.5            	bot_wall	(-9.55210699e-02 4.95557838e-17 0.00000000e+00)	(-9.55210699e-02 4.95557838e-17 0.00000000e+00)
36              	top_wall	(-9.54777541e-02 2.96177260e-21 0.00000000e+00)	(-9.54777541e-02 2.96177260e-21 0.00000000e+00)
36              	bot_wall	(-9.54777593e-02 3.06979466e-17 0.00000000e+00)	(-9.54777593e-02 3.06979466e-17 0.00000000e+00)
36.5            	top_wall	(-9.54370555e-02 3.34798151e-21 0.00000000e+00)	(-9.54370555e-02 3.34798151e-21 0.00000000e+00)
36.5            	bot_wall	(-9.54370607e-02 2.72034980e-17 0.00000000e+00)	(-9.54370607e-02 2.72034980e-17 0.00000000e+00)
37              	top_wall	(-9.53988177e-02 3.69213629e-21 0.00000000e+00)	(-9.53988177e-02 3.69213629e-21 0.00000000e+00)
37              	bot_wall	(-9.53988229e-02 2.60751522e-17 0.00000000e+00)	(-9.53988229e-02 2.60751522e-17 0.00000000e+00)
37.5            	top_wall	(-9.53628724e-02 4.00837787e-21 0.00000000e+00)	(-9.53628724e-02 4.00837787e-21 0.00000000e+00)
37.5            	bot_wall	(-9.53628776e-02 1.46245458e-17 0.00000000e+00)	(-9.53628776e-02 1.46245458e-17 0.00000000e+00)
38              	top_wall	(-9.53291147e-02 4.30512282e-21 0.00000000e+00)	(-9.53291147e-02 4.30512282e-21 0.00000000e+00)
38              	bot_wall	(-9.53291199e-02 3.57584213e-17 0.00000000e+00)	(-9.53291199e-02 3.57584213e-17 0.00000000e+00)
38.5            	top_wall	(-9.52973748e-02 -2.30700422e-21 0.00000000e+00)	(-9.52973748e-02 -2.30700422e-21 0.00000000e+00)
38.5            	bot_wall	(-9.52973800e-02 1.42120787e-17 0.00000000e+00)	(-9.52973800e-02 1.42120787e-17 0.00000000e+00)
39              	top_wall	(-9.52675626e-02 1.85723987e-21 0.00000000e+00)	(-9.52675626e-02 1.85723987e-21 0.00000000e+00)
39              	bot_wall	(-9.52675679e-02 1.48071334e-17 0.00000000e+00)	(-9.52675679e-02 1.48071334e-17 0.00000000e+00)
39.5            	top_wall	(-9.52395362e-02 2.99314481e-21 0.00000000e+00)	(-9.52395362e-02 2.99314481e-21 0.00000000e+00)
39.5            	bot_wall	(-9.52395415e-02 6.16761726e-19 0.00000000e+00)	(-9.52395415e-02 6.16761726e-19 0.00000000e+00)
40              	top_wall	(-9.52132065e-02 3.65030763e-21 0.00000000e+00)	(-9.52132065e-02 3.65030763e-21 0.00000000e+00)
40              	bot_wall	(-9.52132118e-02 6.99447338e-18 0.00000000e+00)	(-9.52132118e-02 6.99447338e-18 0.00000000e+00)
40.5            	top_wall	(-9.51884599e-02 4.14303435e-21 0.00000000e+00)	(-9.51884599e-02 4.14303435e-21 0.00000000e+00)
40.5            	bot_wall	(-9.51884651e-02 1.41100895e-17 0.00000000e+00)	(-9.51884651e-02 1.41100895e-17 0.00000000e+00)
41              	top_wall	(-9.51652012e-02 -8.71780498e-22 0.00000000e+00)	(-9.51652012e-02 -8.71780498e-22 0.00000000e+00)
41              	bot_wall	(-9.51652064e-02 7.71119255e-18 0.00000000e+00)	(-9.51652064e-02 7.71119255e-18 0.00000000e+00)
41.5            	top_wall	(-9.51433539e-02 1.99683071e-21 0.00000000e+00)	(-9.51433539e-02 1.99683071e-21 0.00000000e+00)
41.5            	bot_wall	(-9.51433591e-02 2.90263955e-17 0.00000000e+00)	(-9.51433591e-02 2.90263955e-17 0.00000000e+00)
42              	top_wall	(-9.51228090e-02 3.25397187e-21 0.00000000e+00)	(-9.51228090e-02 3.25397187e-21 0.00000000e+00)
42              	bot_wall	(-9.51228143e-02 3.38675975e-17 0.00000000e+00)	(-9.51228143e-02 3.38675975e-17 0.00000000e+00)
42.5            	top_wall	(-9.51035195e-02 3.93494487e-21 0.00000000e+00)	(-9.51035195e-02 3.93494487e-21 0.00000000e+00)
42.5            	bot_wall	(-9.51035248e-02 1.54702868e-17 0.00000000e+00)	(-9.51035248e-02 1.54702868e-17 0.00000000e+00)
43              	top_wall	(-9.50853776e-02 4.43635373e-21 0.00000000e+00)	(-9.50853776e-02 4.43635373e-21 0.00000000e+00)
43              	bot_wall	(-9.50853828e-02 2.75198200e-17 0.00000000e+00)	(-9.50853828e-02 2.75198200e-17 0.00000000e+00)
43.5            	top_wall	(-9.50683400e-02 1.63356048e-21 0.00000000e+00)	(-9.50683400e-02 1.63356048e-21 0.00000000e+00)
43.5            	bot_wall	(-9.50683452e-02 2.18334734e-17 0.00000000e+00)	(-9.50683452e-02 2.18334734e-17 0.00000000e+00)
44              	top_wall	(-9.50523205e-02 3.19225504e-21 0.00000000e+00)	(-9.50523205e-02 3.19225504e-21 0.00000000e+00)
44              	bot_wall	(-9.50523258e-02 5.51933607e-17 0.00000000e+00)	(-9.50523258e-02 5.51933607e-17 0.00000000e+00)
44.5            	top_wall	(-9.50372699e-02 3.96092357e-21 0.00000000e+00)	(-9.50372699e-02 3.96092357e-21 0.00000000e+00)
44.5            	bot_wall	(-9.50372751e-02 4.15286157e-17 0.00000000e+00)	(-9.50372751e-02 4.15286157e-17 0.00000000e+00)
45              	top_wall	(-9.50231260e-02 4.50562258e-21 0.00000000e+00)	(-9.50231260e-02 4.50562258e-21 0.00000000e+00)
45              	bot_wall	(-9.50231313e-02 4.70001150e-17 0.00000000e+00)	(-9.50231313e-02 4.70001150e-17 0.00000000e+00)
45.5            	top_wall	(-9.50098238e-02 2.12647332e-21 0.00000000e+00)	(-9.50098238e-02 2.12647332e-21 0.00000000e+00)
45.5            	bot_wall	(-9.50098290e-02 3.14590461e-17 0.00000000e+00)	(-9.50098290e-02 3.14590461e-17 0.00000000e+00)
46              	top_wall	(-9.49973423e-02 3.45958602e-21 0.00000000e+00)	(-9.49973423e-02 3.45958602e-21 0.00000000e+00)
46              	bot_wall	(-9.49973475e-02 3.51060548e-17 0.00000000e+00)	(-9.49973475e-02 3.51060548e-17 0.00000000e+00)
46.5            	top_wall	(-9.49855958e-02 4.17564248e-21 0.00000000e+00)	(-9.49855958e-02 4.17564248e-21 0.00000000e+00)
46.5            	bot_wall	(-9.49856010e-02 4.07037264e-17 0.00000000e+00)	(-9.49856010e-02 4.07037264e-17 0.00000000e+00)
47              	top_wall	(-9.49745703e-02 -5.10917232e-23 0.00000000e+00)	(-9.49745703e-02 -5.10917232e-23 0.00000000e+00)
47              	bot_wall	(-9.49745755e-02 6.84228665e-18 0.00000000e+00)	(-9.49745755e-02 6.84228665e-18 0.00000000e+00)
47.5            	top_wall	(-9.49641984e-02 2.89672410e-21 0.00000000e+00)	(-9.49641984e-02 2.89672410e-21 0.00000000e+00)
47.5            	bot_wall	(-9.49642036e-02 3.71281488e-17 0.00000000e+00)	(-9.49642036e-02 3.71281488e-17 0.00000000e+00)
48              	top_wall	(-9.49544574e-02 3.86533643e-21 0.00000000e+00)	(-9.49544574e-02 3.86533643e-21 0.00000000e+00)
48              	bot_wall	(-9.49544626e-02 6.63721469e-18 0.00000000e+00)	(-9.49544626e-02 6.63721469e-18 0.00000000e+00)
48.5            	top_wall	(-9.49453004e-02 4.48205877e-21 0.00000000e+00)	(-9.49453004e-02 4.48205877e-21 0.00000000e+00)
48.5            	bot_wall	(-9.49453056e-02 2.08554335e-17 0.00000000e+00)	(-9.49453056e-02 2.08554335e-17 0.00000000e+00)
49              	top_wall	(-9.49366903e-02 2.23039915e-21 0.00000000e+00)	(-9.49366903e-02 2.23039915e-21 0.00000000e+00)
49              	bot_wall	(-9.49366954e-02 2.20104687e-17 0.00000000e+00)	(-9.49366954e-02 2.20104687e-17 0.00000000e+00)
49.5            	top_wall	(-9.49286094e-02 3.56401169e-21 0.00000000e+00)	(-9.49286094e-02 3.56401169e-21 0.00000000e+00)
49.5            	bot_wall	(-9.49286146e-02 2.00687083e-17 0.00000000e+00)	(-9.49286146e-02 2.00687083e-17 0.00000000e+00)
50              	top_wall	(-9.49210024e-02 4.29083002e-21 0.00000000e+00)	(-9.49210024e-02 4.29083002e-21 0.00000000e+00)
50              	bot_wall	(-9.49210076e-02 1.90711620e-17 0.00000000e+00)	(-9.49210076e-02 1.90711620e-17 0.00000000e+00)
50.5            	top_wall	(-9.49138673e-02 1.32734250e-21 0.00000000e+00)	(-9.49138673e-02 1.32734250e-21 0.00000000e+00)
50.5            	bot_wall	(-9.49138725e-02 3.01651840e-17 0.00000000e+00)	(-9.49138725e-02 3.01651840e-17 0.00000000e+00)
51              	top_wall	(-9.49071511e-02 3.27545896e-21 0.00000000e+00)	(-9.49071511e-02 3.27545896e-21 0.00000000e+00)
51              	bot_wall	(-9.49071563e-02 2.52667191e-17 0.00000000e+00)	(-9.49071563e-02 2.52667191e-17 0.00000000e+00)
51.5            	top_wall	(-9.49008460e-02 4.12453182e-21 0.00000000e+00)	(-9.49008460e-02 4.12453182e-21 0.00000000e+00)
51.5            	bot_wall	(-9.49008511e-02 3.73979557e-17 0.00000000e+00)	(-9.49008511e-02 3.73979557e-17 0.00000000e+00)
52              	top_wall	(-9.48949174e-02 -5.02157948e-23 0.00000000e+00)	(-9.48949174e-02 -5.02157948e-23 0.00000000e+00)
52              	bot_wall	(-9.48949225e-02 2.08314334e-17 0.00000000e+00)	(-9.48949225e-02 2.08314334e-17 0.00000000e+00)
52.5            	top_wall	(-9.48893422e-02 2.97261385e-21 0.00000000e+00)	(-9.48893422e-02 2.97261385e-21 0.00000000e+00)
52.5            	bot_wall	(-9.48893473e-02 1.39784458e-17 0.00000000e+00)	(-9.48893473e-02 1.39784458e-17 0.00000000e+00)
53              	top_wall	(-9.48841118e-02 3.95161161e-21 0.00000000e+00)	(-9.48841118e-02 3.95161161e-21 0.00000000e+00)
53              	bot_wall	(-9.48841169e-02 2.35954557e-17 0.00000000e+00)	(-9.48841169e-02 2.35954557e-17 0.00000000e+00)
53.5            	top_wall	(-9.48791849e-02 -1.54570196e-21 0.00000000e+00)	(-9.48791849e-02 -1.54570196e-21 0.00000000e+00)
53.5            	bot_wall	(-9.48791899e-02 1.62021170e-17 0.00000000e+00)	(-9.48791899e-02 1.62021170e-17 0.00000000e+00)
54              	top_wall	(-9.48745672e-02 2.64138806e-21 0.00000000e+00)	(-9.48745672e-02 2.64138806e-21 0.00000000e+00)
54              	bot_wall	(-9.48745722e-02 1.26840169e-17 0.00000000e+00)	(-9.48745722e-02 1.26840169e-17 0.00000000e+00)
54.5            	top_wall	(-9.48702182e-02 3.75927833e-21 0.00000000e+00)	(-9.48702182e-02 3.75927833e-21 0.00000000e+00)
54.5            	bot_wall	(-9.48702232e-02 7.75873666e-18 0.00000000e+00)	(-9.48702232e-02 7.75873666e-18 0.00000000e+00)
55              	top_wall	(-9.48661355e-02 4.44066021e-21 0.00000000e+00)	(-9.48661355e-02 4.44066021e-21 0.00000000e+00)
55              	bot_wall	(-9.48661404e-02 4.99722746e-18 0.00000000e+00)	(-9.48661404e-02 4.99722746e-18 0.00000000e+00)
55.5            	top_wall	(-9.48622980e-02 2.12717274e-21 0.00000000e+00)	(-9.48622980e-02 2.12717274e-21 0.00000000e+00)
55.5            	bot_wall	(-9.48623029e-02 -1.50388858e-18 0.00000000e+00)	(-9.48623029e-02 -1.50388858e-18 0.00000000e+00)
56              	top_wall	(-9.48586826e-02 3.52632733e-21 0.00000000e+00)	(-9.48586826e-02 3.52632733e-21 0.00000000e+00)
56              	bot_wall	(-9.48586876e-02 3.95748617e-17 0.00000000e+00)	(-9.48586876e-02 3.95748617e-17 0.00000000e+00)
56.5            	top_wall	(-9.48553017e-02 4.26237985e-21 0.00000000e+00)	(-9.48553017e-02 4.26237985e-21 0.00000000e+00)
56.5            	bot_wall	(-9.48553066e-02 2.31743588e-17 0.00000000e+00)	(-9.48553066e-02 2.31743588e-17 0.00000000e+00)
57              	top_wall	(-9.48521109e-02 9.33554906e-22 0.00000000e+00)	(-9.48521109e-02 9.33554906e-22 0.00000000e+00)
57              	bot_wall	(-9.48521157e-02 9.90624305e-18 0.00000000e+00)	(-9.48521157e-02 9.90624305e-18 0.00000000e+00)
57.5            	top_wall	(-9.48491208e-02 3.16987635e-21 0.00000000e+00)	(-9.48491208e-02 3.16987635e-21 0.00000000e+00)
57.5            	bot_wall	(-9.48491256e-02 2.69720824e-17 0.00000000e+00)	(-9.48491256e-02 2.69720824e-17 0.00000000e+00)
58              	top_wall	(-9.48463058e-02 4.02659095e-21 0.00000000e+00)	(-9.48463058e-02 4.02659095e-21 0.00000000e+00)
58              	bot_wall	(-9.48463106e-02 2.31594961e-17 0.00000000e+00)	(-9.48463106e-02 2.31594961e-17 0.00000000e+00)
58.5            	top_wall	(-9.48436588e-02 -2.28846086e-21 0.00000000e+00)	(-9.48436588e-02 -2.28846086e-21 0.00000000e+00)
58.5            	bot_wall	(-9.48436636e-02 1.29223219e-17 0.00000000e+00)	(-9.48436636e-02 1.29223219e-17 0.00000000e+00)
59              	top_wall	(-9.48411775e-02 2.62896656e-21 0.00000000e+00)	(-9.48411775e-02 2.62896656e-21 0.00000000e+00)
59              	bot_wall	(-9.48411823e-02 1.79663960e-17 0.00000000e+00)	(-9.48411823e-02 1.79663960e-17 0.00000000e+00)
59.5            	top_wall	(-9.48388360e-02 3.70006822e-21 0.00000000e+00)	(-9.48388360e-02 3.70006822e-21 0.00000000e+00)
59.5            	bot_wall	(-9.48388408e-02 1.87934920e-17 0.00000000e+00)	(-9.48388408e-02 1.87934920e-17 0.00000000e+00)
60              	top_wall	(-9.48366461e-02 4.34554495e-21 0.00000000e+00)	(-9.48366461e-02 4.34554495e-21 0.00000000e+00)
60              	bot_wall	(-9.48366509e-02 2.26682794e-17 0.00000000e+00)	(-9.48366509e-02 2.26682794e-17 0.00000000e+00)
60.5            	top_wall	(-9.48345814e-02 1.33153956e-21 0.00000000e+00)	(-9.48345814e-02 1.33153956e-21 0.00000000e+00)
60.5            	bot_wall	(-9.48345861e-02 2.67704554e-17 0.00000000e+00)	(-9.48345861e-02 2.67704554e-17 0.00000000e+00)
61              	top_wall	(-9.48326411e-02 3.20434123e-21 0.00000000e+00)	(-9.48326411e-02 3.20434123e-21 0.00000000e+00)
61              	bot_wall	(-9.48326458e-02 6.02796598e-18 0.00000000e+00)	(-9.48326458e-02 6.02796598e-18 0.00000000e+00)