# Wall shear stress
# Time          	patch           	min             	max             
0.5             	top_wall	(-5.60901820e-02 -9.03753825e-28 0.00000000e+00)	(-5.60901820e-02 -9.03753825e-28 0.00000000e+00)
0.5             	bot_wall	(-5.60901908e-02 1.50009711e-18 0.00000000e+00)	(-5.60901908e-02 1.50009711e-18 0.00000000e+00)
1               	top_wall	(-5.35226676e-02 2.58040358e-27 0.00000000e+00)	(-5.35226676e-02 2.58040358e-27 0.00000000e+00)
1               	bot_wall	(-5.35226168e-02 1.70497810e-18 0.00000000e+00)	(-5.35226168e-02 1.70497810e-18 0.00000000e+00)
1.5             	top_wall	(-5.14629547e-02 6.60319965e-27 0.00000000e+00)	(-5.14629547e-02 6.60319965e-27 0.00000000e+00)
1.5             	bot_wall	(-5.14628976e-02 -1.02995564e-19 0.00000000e+00)	(-5.14628976e-02 -1.02995564e-19 0.00000000e+00)
2               	top_wall	(-5.00242675e-02 1.03209548e-26 0.00000000e+00)	(-5.00242675e-02 1.03209548e-26 0.00000000e+00)
2               	bot_wall	(-5.00242190e-02 -1.87680655e-18 0.00000000e+00)	(-5.00242190e-02 -1.87680655e-18 0.00000000e+00)
2.5             	top_wall	(-4.89735787e-02 1.38248775e-26 0.00000000e+00)	(-4.89735787e-02 1.38248775e-26 0.00000000e+00)
2.5             	bot_wall	(-4.89735399e-02 -1.02189102e-18 0.00000000e+00)	(-4.89735399e-02 -1.02189102e-18 0.00000000e+00)
3               	top_wall	(-4.81750887e-02 1.55966461e-26 0.00000000e+00)	(-4.81750887e-02 1.55966461e-26 0.00000000e+00)
3               	bot_wall	(-4.81750578e-02 -1.60424175e-18 0.00000000e+00)	(-4.81750578e-02 -1.60424175e-18 0.00000000e+00)
3.5             	top_wall	(-4.75501649e-02 1.86826469e-26 0.00000000e+00)	(-4.75501649e-02 1.86826469e-26 0.00000000e+00)
3.5             	bot_wall	(-4.75501405e-02 -1.95440586e-19 0.00000000e+00)	(-4.75501405e-02 -1.95440586e-19 0.00000000e+00)
4               	top_wall	(-4.70510519e-02 1.76224590e-26 0.00000000e+00)	(-4.70510519e-02 1.76224590e-26 0.00000000e+00)
4               	bot_wall	(-4.70510332e-02 1.01181044e-18 0.00000000e+00)	(-4.70510332e-02 1.01181044e-18 0.00000000e+00)
4.5             	top_wall	(-4.66471117e-02 2.05132610e-26 0.00000000e+00)	(-4.66471117e-02 2.05132610e-26 0.00000000e+00)
4.5             	bot_wall	(-4.66470983e-02 -1.42252613e-18 0.00000000e+00)	(-4.66470983e-02 -1.42252613e-18 0.00000000e+00)
5               	top_wall	(-4.63179145e-02 2.37694214e-26 0.00000000e+00)	(-4.63179145e-02 2.37694214e-26 0.00000000e+00)
5               	bot_wall	(-4.63179061e-02 -2.63876673e-18 0.00000000e+00)	(-4.63179061e-02 -2.63876673e-18 0.00000000e+00)
5.5             	top_wall	(-4.60494522e-02 4.06355649e-26 0.00000000e+00)	(-4.60494522e-02 4.06355649e-26 0.00000000e+00)
5.5             	bot_wall	(-4.60494479e-02 -1.27267405e-18 0.00000000e+00)	(-4.60494479e-02 -1.27267405e-18 0.00000000e+00)
6               	top_wall	(-4.58314834e-02 7.74187470e-26 0.00000000e+00)	(-4.58314834e-02 7.74187470e-26 0.00000000e+00)
6               	bot_wall	(-4.58314828e-02 -2.19777502e-18 0.00000000e+00)	(-4.58314828e-02 -2.19777502e-18 0.00000000e+00)
6.5             	top_wall	(-4.56564557e-02 1.65952087e-25 0.00000000e+00)	(-4.56564557e-02 1.65952087e-25 0.00000000e+00)
6.5             	bot_wall	(-4.56564583e-02 1.70816400e-19 0.00000000e+00)	(-4.56564583e-02 1.70816400e-19 0.00000000e+00)
7               	top_wall	(-4.55186968e-02 3.29964396e-25 0.00000000e+00)	(-4.55186968e-02 3.29964396e-25 0.00000000e+00)
7               	bot_wall	(-4.55187022e-02 1.05610768e-19 0.00000000e+00)	(-4.55187022e-02 1.05610768e-19 0.00000000e+00)
7.5             	top_wall	(-4.54137626e-02 6.07002554e-25 0.00000000e+00)	(-4.54137626e-02 6.07002554e-25 0.00000000e+00)
7.5             	bot_wall	(-4.54137705e-02 5.30784612e-19 0.00000000e+00)	(-4.54137705e-02 5.30784612e-19 0.00000000e+00)
8               	top_wall	(-4.53378754e-02 1.01723007e-24 0.00000000e+00)	(-4.53378754e-02 1.01723007e-24 0.00000000e+00)
8               	bot_wall	(-4.53378855e-02 6.69964517e-19 0.00000000e+00)	(-4.53378855e-02 6.69964517e-19 0.00000000e+00)
8.5             	top_wall	(-4.52874299e-02 1.59944488e-24 0.00000000e+00)	(-4.52874299e-02 1.59944488e-24 0.00000000e+00)
8.5             	bot_wall	(-4.52874418e-02 1.15998048e-18 0.00000000e+00)	(-4.52874418e-02 1.15998048e-18 0.00000000e+00)
9               	top_wall	(-4.52586660e-02 2.40068093e-24 0.00000000e+00)	(-4.52586660e-02 2.40068093e-24 0.00000000e+00)
9               	bot_wall	(-4.52586793e-02 9.63524033e-19 0.00000000e+00)	(-4.52586793e-02 9.63524033e-19 0.00000000e+00)
9.5             	top_wall	(-4.52476702e-02 3.45847624e-24 0.00000000e+00)	(-4.52476702e-02 3.45847624e-24 0.00000000e+00)
9.5             	bot_wall	(-4.52476847e-02 1.74988077e-18 0.00000000e+00)	(-4.52476847e-02 1.74988077e-18 0.00000000e+00)
10              	top_wall	(-4.52507196e-02 4.86723431e-24 0.00000000e+00)	(-4.52507196e-02 4.86723431e-24 0.00000000e+00)
10              	bot_wall	(-4.52507350e-02 -4.27775369e-19 0.00000000e+00)	(-4.52507350e-02 -4.27775369e-19 0.00000000e+00)
10.5            	top_wall	(-4.52646443e-02 6.74026946e-24 0.00000000e+00)	(-4.52646443e-02 6.74026946e-24 0.00000000e+00)
10.5            	bot_wall	(-4.52646605e-02 1.86188932e-18 0.00000000e+00)	(-4.52646605e-02 1.86188932e-18 0.00000000e+00)
11              	top_wall	(-4.52870468e-02 9.21020270e-24 0.00000000e+00)	(-4.52870468e-02 9.21020270e-24 0.00000000e+00)
11              	bot_wall	(-4.52870635e-02 2.18500909e-18 0.00000000e+00)	(-4.52870635e-02 2.18500909e-18 0.00000000e+00)
11.5            	top_wall	(-4.53162728e-02 1.24671777e-23 0.00000000e+00)	(-4.53162728e-02 1.24671777e-23 0.00000000e+00)
11.5            	bot_wall	(-4.53162897e-02 1.27175319e-18 0.00000000e+00)	(-4.53162897e-02 1.27175319e-18 0.00000000e+00)
12              	top_wall	(-4.53511263e-02 1.67629008e-23 0.00000000e+00)	(-4.53511263e-02 1.67629008e-23 0.00000000e+00)
12              	bot_wall	(-4.53511432e-02 1.39968533e-18 0.00000000e+00)	(-4.53511432e-02 1.39968533e-18 0.00000000e+00)
12.5            	top_wall	(-4.53907191e-02 2.23761842e-23 0.00000000e+00)	(-4.53907191e-02 2.23761842e-23 0.00000000e+00)
12.5            	bot_wall	(-4.53907358e-02 3.72376657e-18 0.00000000e+00)	(-4.53907358e-02 3.72376657e-18 0.00000000e+00)
13              	top_wall	(-4.54343342e-02 2.96121074e-23 0.00000000e+00)	(-4.54343342e-02 2.96121074e-23 0.00000000e+00)
13              	bot_wall	(-4.54343507e-02 1.11097911e-18 0.00000000e+00)	(-4.54343507e-02 1.11097911e-18 0.00000000e+00)
13.5            	top_wall	(-4.54812960e-02 3.88532642e-23 0.00000000e+00)	(-4.54812960e-02 3.88532642e-23 0.00000000e+00)
13.5            	bot_wall	(-4.54813123e-02 4.08337624e-19 0.00000000e+00)	(-4.54813123e-02 4.08337624e-19 0.00000000e+00)
14              	top_wall	(-4.55310606e-02 5.04973491e-23 0.00000000e+00)	(-4.55310606e-02 5.04973491e-23 0.00000000e+00)
14              	bot_wall	(-4.55310767e-02 1.10489618e-18 0.00000000e+00)	(-4.55310767e-02 1.10489618e-18 0.00000000e+00)
14.5            	top_wall	(-4.55831005e-02 6.49759945e-23 0.00000000e+00)	(-4.55831005e-02 6.49759945e-23 0.00000000e+00)
14.5            	bot_wall	(-4.55831162e-02 1.17102098e-18 0.00000000e+00)	(-4.55831162e-02 1.17102098e-18 0.00000000e+00)
15              	top_wall	(-4.56368418e-02 8.27164586e-23 0.00000000e+00)	(-4.56368418e-02 8.27164586e-23 0.00000000e+00)
15              	bot_wall	(-4.56368572e-02 8.99505273e-19 0.00000000e+00)	(-4.56368572e-02 8.99505273e-19 0.00000000e+00)
15.5            	top_wall	(-4.56918044e-02 1.04147656e-22 0.00000000e+00)	(-4.56918044e-02 1.04147656e-22 0.00000000e+00)
15.5            	bot_wall	(-4.56918194e-02 8.06776227e-19 0.00000000e+00)	(-4.56918194e-02 8.06776227e-19 0.00000000e+00)
16              	top_wall	(-4.57474994e-02 1.29664311e-22 0.00000000e+00)	(-4.57474994e-02 1.29664311e-22 0.00000000e+00)
16              	bot_wall	(-4.57475141e-02 -5.47026143e-19 0.00000000e+00)	(-4.57475141e-02 -5.47026143e-19 0.00000000e+00)
16.5            	top_wall	(-4.58034344e-02 1.59658719e-22 0.00000000e+00)	(-4.58034344e-02 1.59658719e-22 0.00000000e+00)
16.5            	bot_wall	(-4.58034488e-02 4.07982435e-19 0.00000000e+00)	(-4.58034488e-02 4.07982435e-19 0.00000000e+00)
17              	top_wall	(-4.58592203e-02 1.94454653e-22 0.00000000e+00)	(-4.58592203e-02 1.94454653e-22 0.00000000e+00)
17              	bot_wall	(-4.58592344e-02 1.82865951e-18 0.00000000e+00)	(-4.58592344e-02 1.82865951e-18 0.00000000e+00)
17.5            	top_wall	(-4.59144937e-02 2.34351391e-22 0.00000000e+00)	(-4.59144937e-02 2.34351391e-22 0.00000000e+00)
17.5            	bot_wall	(-4.59145073e-02 -2.40840332e-19 0.00000000e+00)	(-4.59145073e-02 -2.40840332e-19 0.00000000e+00)
