/*--------------------------------*- C++ -*----------------------------------*\
| =========                 |                                                 |
| \\      /  F ield         | OpenFOAM: The Open Source CFD Toolbox           |
|  \\    /   O peration     | Version:  2406                                  |
|   \\  /    A nd           | Website:  www.openfoam.com                      |
|    \\/     M anipulation  |                                                 |
\*---------------------------------------------------------------------------*/
FoamFile
{
    version     2.0;
    format      ascii;
    arch        "LSB;label=32;scalar=64";
    class       volScalarField;
    location    "22.905";
    object      k;
}
// * * * * * * * * * * * * * * * * * * * * * * * * * * * * * * * * * * * * * //

dimensions      [0 2 -2 0 0 0 0];

internalField   nonuniform List<scalar> 
1000
(
0.000381133
0.000275818
0.00153528
0.0053028
0.0126939
0.023574
0.0363094
0.048964
0.0603668
0.0701518
0.0784039
0.0853341
0.0911398
0.0960068
0.100099
0.103555
0.106486
0.108987
0.111129
0.112974
0.11457
0.115956
0.117166
0.118224
0.119155
0.119975
0.1207
0.121344
0.121915
0.122422
0.122872
0.12327
0.123623
0.123935
0.12421
0.124451
0.124662
0.124845
0.125003
0.125138
0.125253
0.125348
0.125426
0.125487
0.125534
0.125566
0.125587
0.125595
0.125593
0.12558
0.125559
0.125528
0.12549
0.125444
0.125391
0.125332
0.125267
0.125196
0.125119
0.125038
0.124952
0.124862
0.124767
0.124669
0.124567
0.124462
0.124354
0.124243
0.124128
0.124012
0.123892
0.123771
0.123647
0.123521
0.123394
0.123264
0.123133
0.123
0.122865
0.122729
0.122592
0.122453
0.122313
0.122172
0.12203
0.121886
0.121742
0.121597
0.121451
0.121304
0.121156
0.121008
0.120859
0.120709
0.120558
0.120407
0.120256
0.120103
0.119951
0.119797
0.119644
0.11949
0.119335
0.11918
0.119025
0.118869
0.118713
0.118556
0.1184
0.118243
0.118085
0.117928
0.11777
0.117612
0.117453
0.117295
0.117136
0.116977
0.116817
0.116658
0.116498
0.116338
0.116178
0.116018
0.115857
0.115697
0.115536
0.115375
0.115214
0.115053
0.114892
0.11473
0.114568
0.114407
0.114245
0.114082
0.11392
0.113758
0.113595
0.113433
0.11327
0.113107
0.112944
0.112781
0.112617
0.112454
0.11229
0.112126
0.111963
0.111799
0.111634
0.11147
0.111306
0.111141
0.110976
0.110811
0.110646
0.110481
0.110316
0.11015
0.109985
0.109819
0.109653
0.109487
0.109321
0.109154
0.108988
0.108821
0.108654
0.108487
0.10832
0.108152
0.107985
0.107817
0.107649
0.107481
0.107312
0.107143
0.106974
0.106804
0.106633
0.106462
0.10629
0.106117
0.105943
0.105769
0.105594
0.105418
0.105241
0.105063
0.104885
0.104706
0.104526
0.104345
0.104164
0.103981
0.103798
0.103614
0.103429
0.103243
0.103057
0.10287
0.102681
0.102492
0.102303
0.102112
0.10192
0.101728
0.101535
0.10134
0.101145
0.100949
0.100753
0.100555
0.100356
0.100157
0.0999564
0.0997551
0.0995529
0.0993498
0.0991458
0.0989408
0.098735
0.0985282
0.0983204
0.0981118
0.0979022
0.0976916
0.0974801
0.0972677
0.0970543
0.0968399
0.0966246
0.0964083
0.0961911
0.0959729
0.0957537
0.0955335
0.0953124
0.0950903
0.0948672
0.0946431
0.094418
0.0941919
0.0939649
0.0937368
0.0935077
0.0932777
0.0930466
0.0928145
0.0925815
0.0923474
0.0921123
0.0918761
0.091639
0.0914008
0.0911617
0.0909215
0.0906802
0.090438
0.0901947
0.0899503
0.089705
0.0894586
0.0892112
0.0889627
0.0887132
0.0884626
0.088211
0.0879584
0.0877047
0.0874499
0.0871941
0.0869373
0.0866793
0.0864204
0.0861604
0.0858993
0.0856371
0.0853739
0.0851097
0.0848444
0.084578
0.0843105
0.084042
0.0837724
0.0835017
0.08323
0.0829572
0.0826833
0.0824084
0.0821324
0.0818553
0.0815771
0.0812979
0.0810176
0.0807362
0.0804537
0.0801702
0.0798855
0.0795998
0.0793131
0.0790252
0.0787363
0.0784463
0.0781552
0.077863
0.0775697
0.0772754
0.07698
0.0766835
0.076386
0.0760873
0.0757876
0.0754868
0.075185
0.0748821
0.0745781
0.074273
0.0739669
0.0736597
0.0733514
0.0730421
0.0727317
0.0724202
0.0721077
0.0717941
0.0714795
0.0711637
0.0708469
0.0705289
0.0702098
0.0698896
0.0695681
0.0692455
0.0689215
0.0685961
0.0682694
0.0679412
0.0676118
0.0672814
0.0669503
0.0666184
0.0662858
0.0659526
0.0656192
0.0652856
0.0649522
0.0646193
0.0642875
0.0639572
0.0636291
0.0633039
0.0629822
0.0626645
0.0623513
0.0620424
0.0617371
0.0614335
0.0611304
0.0608279
0.0605259
0.0602244
0.0599235
0.0596233
0.0593236
0.0590246
0.0587262
0.0584285
0.0581315
0.0578352
0.0575396
0.0572448
0.0569508
0.0566575
0.056365
0.0560733
0.0557825
0.0554925
0.0552034
0.0549151
0.0546278
0.0543414
0.0540559
0.0537714
0.0534879
0.0532054
0.0529239
0.0526434
0.052364
0.0520856
0.0518083
0.0515322
0.0512571
0.0509832
0.0507105
0.050439
0.0501686
0.0498995
0.0496316
0.049365
0.0490996
0.0488356
0.0485729
0.0483115
0.0480515
0.0477928
0.0475356
0.0472798
0.0470255
0.0467726
0.0465212
0.0462713
0.046023
0.0457763
0.0455311
0.0452875
0.0450456
0.0448053
0.0445667
0.0443298
0.0440946
0.0438612
0.0436296
0.0433998
0.0431718
0.0429457
0.0427215
0.0424991
0.0422787
0.0420603
0.0418438
0.0416294
0.041417
0.0412067
0.0409984
0.0407923
0.0405883
0.0403865
0.0401868
0.0399894
0.0397942
0.0396013
0.0394107
0.0392223
0.0390363
0.0388527
0.0386714
0.0384926
0.0383161
0.0381421
0.0379706
0.0378015
0.0376349
0.0374709
0.0373093
0.0371505
0.0369947
0.036842
0.0366926
0.0365463
0.0364033
0.0362635
0.0361271
0.0359939
0.0358642
0.0357378
0.0356148
0.0354952
0.0353792
0.0352666
0.0351575
0.035052
0.03495
0.0348517
0.0347569
0.0346658
0.0345783
0.0344944
0.0344143
0.0343379
0.0342652
0.0341962
0.034131
0.0340696
0.0340119
0.033958
0.033908
0.0338617
0.0338193
0.0337807
0.033746
0.0337151
0.0336881
0.0336649
0.0336455
0.0336301
0.0336185
0.0336108
0.0336069
0.0336069
0.0336108
0.0336185
0.0336301
0.0336455
0.0336649
0.033688
0.0337151
0.033746
0.0337807
0.0338193
0.0338617
0.033908
0.033958
0.0340119
0.0340695
0.034131
0.0341962
0.0342652
0.0343379
0.0344143
0.0344944
0.0345782
0.0346657
0.0347568
0.0348516
0.03495
0.0350519
0.0351575
0.0352665
0.0353791
0.0354952
0.0356147
0.0357377
0.0358641
0.0359939
0.036127
0.0362634
0.0364032
0.0365462
0.0366925
0.036842
0.0369946
0.0371504
0.0373092
0.0374708
0.0376348
0.0378014
0.0379705
0.038142
0.038316
0.0384925
0.0386713
0.0388526
0.0390362
0.0392222
0.0394105
0.0396012
0.0397941
0.0399893
0.0401867
0.0403863
0.0405882
0.0407922
0.0409983
0.0412065
0.0414169
0.0416293
0.0418437
0.0420602
0.0422786
0.042499
0.0427213
0.0429456
0.0431717
0.0433997
0.0436295
0.0438611
0.0440945
0.0443297
0.0445665
0.0448051
0.0450454
0.0452874
0.0455309
0.0457761
0.0460229
0.0462712
0.0465211
0.0467724
0.0470253
0.0472797
0.0475355
0.0477927
0.0480513
0.0483113
0.0485727
0.0488354
0.0490995
0.0493648
0.0496314
0.0498993
0.0501685
0.0504388
0.0507104
0.0509831
0.051257
0.051532
0.0518082
0.0520855
0.0523638
0.0526433
0.0529237
0.0532052
0.0534878
0.0537713
0.0540558
0.0543413
0.0546277
0.054915
0.0552032
0.0554923
0.0557823
0.0560732
0.0563648
0.0566573
0.0569506
0.0572447
0.0575395
0.0578351
0.0581314
0.0584284
0.0587261
0.0590244
0.0593235
0.0596231
0.0599234
0.0602243
0.0605257
0.0608277
0.0611303
0.0614334
0.0617369
0.0620422
0.0623511
0.0626644
0.062982
0.0633037
0.063629
0.063957
0.0642873
0.0646191
0.064952
0.0652854
0.065619
0.0659525
0.0662856
0.0666182
0.0669501
0.0672813
0.0676116
0.067941
0.0682692
0.068596
0.0689213
0.0692453
0.069568
0.0698894
0.0702097
0.0705288
0.0708467
0.0711636
0.0714793
0.071794
0.0721076
0.0724201
0.0727316
0.0730419
0.0733513
0.0736595
0.0739667
0.0742729
0.0745779
0.0748819
0.0751849
0.0754867
0.0757875
0.0760872
0.0763859
0.0766834
0.0769799
0.0772753
0.0775696
0.0778629
0.0781551
0.0784462
0.0787362
0.0790251
0.079313
0.0795997
0.0798855
0.0801701
0.0804536
0.0807361
0.0810175
0.0812978
0.081577
0.0818552
0.0821323
0.0824083
0.0826833
0.0829571
0.0832299
0.0835017
0.0837723
0.0840419
0.0843104
0.0845779
0.0848443
0.0851096
0.0853739
0.0856371
0.0858992
0.0861603
0.0864203
0.0866793
0.0869372
0.0871941
0.0874499
0.0877046
0.0879583
0.088211
0.0884626
0.0887131
0.0889626
0.0892111
0.0894585
0.0897049
0.0899503
0.0901946
0.0904379
0.0906802
0.0909214
0.0911616
0.0914008
0.091639
0.0918761
0.0921122
0.0923473
0.0925814
0.0928145
0.0930466
0.0932776
0.0935077
0.0937368
0.0939648
0.0941919
0.094418
0.094643
0.0948671
0.0950902
0.0953123
0.0955335
0.0957536
0.0959728
0.096191
0.0964083
0.0966246
0.0968399
0.0970542
0.0972676
0.0974801
0.0976916
0.0979021
0.0981117
0.0983204
0.0985281
0.098735
0.0989408
0.0991458
0.0993498
0.0995529
0.0997551
0.0999564
0.100157
0.100356
0.100555
0.100753
0.100949
0.101145
0.10134
0.101535
0.101728
0.10192
0.102112
0.102303
0.102492
0.102681
0.10287
0.103057
0.103243
0.103429
0.103614
0.103798
0.103981
0.104163
0.104345
0.104526
0.104706
0.104885
0.105063
0.105241
0.105418
0.105594
0.105769
0.105943
0.106117
0.10629
0.106462
0.106633
0.106804
0.106974
0.107143
0.107312
0.107481
0.107649
0.107817
0.107985
0.108152
0.10832
0.108487
0.108654
0.108821
0.108988
0.109154
0.109321
0.109487
0.109653
0.109819
0.109985
0.11015
0.110316
0.110481
0.110646
0.110811
0.110976
0.111141
0.111306
0.11147
0.111634
0.111799
0.111963
0.112126
0.11229
0.112454
0.112617
0.112781
0.112944
0.113107
0.11327
0.113433
0.113595
0.113758
0.11392
0.114082
0.114244
0.114406
0.114568
0.11473
0.114891
0.115053
0.115214
0.115375
0.115536
0.115697
0.115857
0.116018
0.116178
0.116338
0.116498
0.116658
0.116817
0.116977
0.117136
0.117294
0.117453
0.117612
0.11777
0.117928
0.118085
0.118243
0.1184
0.118556
0.118713
0.118869
0.119025
0.11918
0.119335
0.11949
0.119644
0.119797
0.119951
0.120103
0.120256
0.120407
0.120558
0.120709
0.120859
0.121008
0.121156
0.121304
0.121451
0.121597
0.121742
0.121886
0.12203
0.122172
0.122313
0.122453
0.122592
0.122729
0.122865
0.123
0.123133
0.123264
0.123394
0.123521
0.123647
0.123771
0.123892
0.124012
0.124128
0.124242
0.124354
0.124462
0.124567
0.124669
0.124767
0.124862
0.124952
0.125038
0.125119
0.125196
0.125267
0.125332
0.125391
0.125444
0.12549
0.125528
0.125559
0.12558
0.125593
0.125595
0.125586
0.125566
0.125533
0.125487
0.125425
0.125348
0.125253
0.125138
0.125003
0.124845
0.124662
0.124451
0.12421
0.123935
0.123623
0.12327
0.122872
0.122422
0.121915
0.121344
0.1207
0.119975
0.119154
0.118224
0.117165
0.115956
0.11457
0.112974
0.111129
0.108986
0.106486
0.103554
0.100099
0.0960067
0.0911396
0.085334
0.0784038
0.0701517
0.0603667
0.0489639
0.0363093
0.023574
0.0126938
0.00530279
0.00153528
0.000275818
0.000381132
)
;

boundaryField
{
    top_wall
    {
        type            kLowReWallFunction;
        value           uniform 1.10938e-08;
    }
    inlet
    {
        type            cyclic;
    }
    bot_wall
    {
        type            kLowReWallFunction;
        value           uniform 1.10938e-08;
    }
    outlet
    {
        type            cyclic;
    }
    frontAndBack
    {
        type            empty;
    }
}


// ************************************************************************* //
