/*--------------------------------*- C++ -*----------------------------------*\
| =========                 |                                                 |
| \\      /  F ield         | OpenFOAM: The Open Source CFD Toolbox           |
|  \\    /   O peration     | Version:  2406                                  |
|   \\  /    A nd           | Website:  www.openfoam.com                      |
|    \\/     M anipulation  |                                                 |
\*---------------------------------------------------------------------------*/
FoamFile
{
    version     2.0;
    format      ascii;
    arch        "LSB;label=32;scalar=64";
    class       volScalarField;
    location    "22.905";
    object      nut;
}
// * * * * * * * * * * * * * * * * * * * * * * * * * * * * * * * * * * * * * //

dimensions      [0 2 -1 0 0 0 0];

internalField   nonuniform List<scalar> 
1000
(
5.95518e-09
2.49466e-08
4.02634e-07
2.81229e-06
1.09383e-05
2.87179e-05
5.74328e-05
9.55396e-05
0.000140604
0.000189298
0.000239731
0.000293306
0.000349848
0.000408965
0.000470265
0.000533384
0.000598062
0.000664064
0.000731192
0.000799284
0.000868211
0.000937864
0.00100814
0.00107891
0.00114991
0.00122061
0.00128979
0.00135845
0.00142715
0.00149585
0.00156454
0.00163318
0.00170177
0.00177028
0.00183869
0.001907
0.00197518
0.00204324
0.00211114
0.0021789
0.00224649
0.00231391
0.00238115
0.0024482
0.00251506
0.00258172
0.00264817
0.00271441
0.00278044
0.00284624
0.00291182
0.00297717
0.00304228
0.00310716
0.00317179
0.00323618
0.00330032
0.0033642
0.00342783
0.0034912
0.00355431
0.00361716
0.00367974
0.00374205
0.00380409
0.00386585
0.00392733
0.00398854
0.00404946
0.0041101
0.00417046
0.00423052
0.0042903
0.00434978
0.00440897
0.00446787
0.00452646
0.00458476
0.00464275
0.00470044
0.00475783
0.00481491
0.00487168
0.00492814
0.00498428
0.00504012
0.00509564
0.00515084
0.00520573
0.00526029
0.00531454
0.00536846
0.00542206
0.00547534
0.00552828
0.0055809
0.00563319
0.00568516
0.00573679
0.00578808
0.00583905
0.00588967
0.00593996
0.00598992
0.00603953
0.00608881
0.00613775
0.00618634
0.00623459
0.0062825
0.00633006
0.00637728
0.00642415
0.00647067
0.00651684
0.00656267
0.00660814
0.00665327
0.00669804
0.00674246
0.00678653
0.00683024
0.0068736
0.0069166
0.00695924
0.00700153
0.00704347
0.00708504
0.00712626
0.00716711
0.00720761
0.00724775
0.00728752
0.00732694
0.00736599
0.00740468
0.00744301
0.00748097
0.00751858
0.00755582
0.00759269
0.0076292
0.00766535
0.00770113
0.00773654
0.0077716
0.00780628
0.0078406
0.00787456
0.00790814
0.00794137
0.00797422
0.00800671
0.00803883
0.00807059
0.00810198
0.008133
0.00816366
0.00819395
0.00822388
0.00825344
0.00828263
0.00831146
0.00833992
0.00836801
0.00839574
0.0084231
0.0084501
0.00847674
0.008503
0.00852891
0.00855445
0.00857963
0.00860444
0.00862889
0.00865297
0.00866868
0.00867822
0.0086841
0.00868792
0.00869076
0.00869334
0.00869614
0.00869941
0.0087033
0.00870785
0.00871307
0.0087189
0.00872529
0.00873215
0.00873942
0.00874702
0.00875487
0.00876291
0.00877108
0.00877933
0.0087876
0.00879587
0.00880408
0.00881221
0.00882023
0.00882812
0.00883586
0.00884344
0.00885083
0.00885803
0.00886503
0.00887182
0.00887839
0.00888475
0.00889087
0.00889677
0.00890243
0.00890787
0.00891307
0.00891803
0.00892276
0.00892725
0.00893151
0.00893553
0.00893932
0.00894287
0.0089462
0.00894929
0.00895215
0.00895478
0.00895719
0.00895937
0.00896132
0.00896306
0.00896457
0.00896585
0.00896692
0.00896778
0.00896841
0.00896884
0.00896904
0.00896904
0.00896883
0.00896841
0.00896777
0.00896694
0.0089659
0.00896465
0.0089632
0.00896156
0.00895971
0.00895766
0.00895542
0.00895298
0.00895034
0.00894751
0.00894449
0.00894128
0.00893788
0.00893428
0.0089305
0.00892654
0.00892238
0.00891804
0.00891352
0.00890881
0.00890393
0.00889886
0.00889361
0.00888818
0.00888257
0.00887679
0.00887083
0.00886469
0.00885838
0.00885189
0.00884524
0.00883841
0.00883141
0.00882424
0.0088169
0.00880939
0.00880171
0.00879387
0.00878587
0.00877769
0.00876936
0.00876086
0.0087522
0.00874338
0.00873439
0.00872525
0.00871595
0.0087065
0.00869688
0.00868712
0.00867719
0.00866712
0.00865689
0.00864651
0.00863598
0.00862531
0.00861448
0.00860351
0.00859239
0.00858113
0.00856972
0.00855818
0.00854649
0.00853467
0.00852271
0.00851062
0.00849839
0.00848604
0.00847355
0.00846095
0.00844821
0.00843536
0.0084224
0.00840932
0.00839613
0.00838283
0.00836942
0.0083559
0.00834226
0.00832851
0.00831462
0.00830058
0.00828637
0.00827195
0.00825727
0.00824226
0.00822686
0.00821096
0.00819445
0.0081772
0.00815905
0.00813986
0.00811949
0.0080978
0.00807473
0.00805033
0.00802478
0.0079985
0.00797207
0.00794619
0.0079217
0.0078996
0.00788119
0.00786804
0.00786204
0.00786546
0.00788089
0.00791117
0.0079592
0.00802754
0.00811776
0.00822935
0.00835805
0.00849344
0.00861587
0.00869295
0.00867687
0.00866035
0.00864366
0.00862677
0.00860971
0.00859248
0.00857507
0.0085575
0.00853977
0.00852187
0.00850382
0.00848563
0.00846728
0.0084488
0.00843018
0.00841143
0.00839256
0.00837356
0.00835445
0.00833522
0.00831589
0.00829645
0.00827692
0.0082573
0.00823758
0.00821779
0.00819792
0.00817798
0.00815797
0.00813789
0.00811777
0.00809759
0.00807736
0.00805709
0.00803679
0.00801646
0.0079961
0.00797572
0.00795533
0.00793492
0.00791451
0.00789411
0.0078737
0.00785331
0.00783294
0.00781259
0.00779226
0.00777197
0.00775172
0.0077315
0.00771134
0.00769123
0.00767118
0.00765119
0.00763127
0.00761142
0.00759166
0.00757198
0.00755239
0.00753289
0.0075135
0.00749421
0.00747503
0.00745597
0.00743703
0.00741822
0.00739953
0.00738099
0.00736259
0.00734433
0.00732623
0.00730828
0.0072905
0.00727288
0.00725544
0.00723818
0.0072211
0.00720421
0.00718751
0.00717102
0.00715472
0.00713864
0.00712277
0.00710712
0.0070917
0.0070765
0.00706154
0.00704683
0.00703236
0.00701814
0.00700418
0.00699049
0.00697706
0.00696391
0.00695104
0.00693846
0.00692617
0.00691419
0.00690248
0.006891
0.00687975
0.00686872
0.00685791
0.00684734
0.00683699
0.00682689
0.00681702
0.00680739
0.006798
0.00678887
0.00677998
0.00677134
0.00676296
0.00675483
0.00674696
0.00673935
0.006732
0.00672492
0.0067181
0.00671155
0.00670528
0.00669927
0.00669354
0.00668808
0.0066829
0.006678
0.00667338
0.00666903
0.00666497
0.0066612
0.00665771
0.0066545
0.00665158
0.00664895
0.00664661
0.00664456
0.0066428
0.00664133
0.00664015
0.00663926
0.00663867
0.00663838
0.00663838
0.00663867
0.00663926
0.00664015
0.00664133
0.0066428
0.00664456
0.00664661
0.00664895
0.00665158
0.0066545
0.00665771
0.0066612
0.00666497
0.00666903
0.00667338
0.006678
0.0066829
0.00668808
0.00669354
0.00669927
0.00670527
0.00671155
0.0067181
0.00672491
0.006732
0.00673934
0.00674695
0.00675482
0.00676295
0.00677133
0.00677997
0.00678886
0.00679799
0.00680738
0.00681701
0.00682688
0.00683698
0.00684732
0.0068579
0.0068687
0.00687974
0.00689099
0.00690246
0.00691417
0.00692616
0.00693844
0.00695103
0.0069639
0.00697705
0.00699047
0.00700417
0.00701812
0.00703234
0.00704681
0.00706152
0.00707648
0.00709167
0.0071071
0.00712275
0.00713861
0.0071547
0.00717099
0.00718749
0.00720419
0.00722108
0.00723816
0.00725542
0.00727286
0.00729047
0.00730826
0.0073262
0.0073443
0.00736256
0.00738096
0.00739951
0.00741819
0.007437
0.00745594
0.007475
0.00749418
0.00751347
0.00753286
0.00755236
0.00757195
0.00759163
0.00761139
0.00763124
0.00765116
0.00767115
0.0076912
0.00771131
0.00773147
0.00775168
0.00777194
0.00779223
0.00781256
0.00783291
0.00785328
0.00787367
0.00789407
0.00791448
0.00793489
0.00795529
0.00797569
0.00799607
0.00801643
0.00803676
0.00805706
0.00807733
0.00809755
0.00811773
0.00813786
0.00815793
0.00817794
0.00819789
0.00821776
0.00823755
0.00825726
0.00827689
0.00829642
0.00831586
0.00833519
0.00835442
0.00837353
0.00839253
0.0084114
0.00843015
0.00844877
0.00846725
0.00848559
0.00850379
0.00852184
0.00853973
0.00855747
0.00857504
0.00859245
0.00860968
0.00862674
0.00864362
0.00866032
0.00867683
0.008693
0.00861597
0.00849356
0.00835817
0.00822945
0.00811784
0.00802759
0.00795923
0.00791118
0.00788088
0.00786544
0.007862
0.00786799
0.00788114
0.00789954
0.00792163
0.00794613
0.007972
0.00799843
0.00802471
0.00805026
0.00807467
0.00809773
0.00811942
0.0081398
0.00815899
0.00817714
0.00819439
0.0082109
0.0082268
0.0082422
0.00825721
0.00827189
0.00828631
0.00830053
0.00831456
0.00832845
0.0083422
0.00835584
0.00836936
0.00838277
0.00839607
0.00840926
0.00842234
0.00843531
0.00844816
0.00846089
0.00847349
0.00848598
0.00849833
0.00851056
0.00852265
0.00853461
0.00854643
0.00855812
0.00856966
0.00858107
0.00859233
0.00860345
0.00861442
0.00862524
0.00863592
0.00864645
0.00865683
0.00866706
0.00867713
0.00868706
0.00869682
0.00870644
0.00871589
0.00872519
0.00873433
0.00874332
0.00875214
0.0087608
0.0087693
0.00877763
0.00878581
0.00879381
0.00880166
0.00880933
0.00881684
0.00882418
0.00883135
0.00883835
0.00884518
0.00885184
0.00885832
0.00886464
0.00887077
0.00887673
0.00888252
0.00888813
0.00889355
0.0088988
0.00890387
0.00890876
0.00891347
0.00891799
0.00892233
0.00892648
0.00893045
0.00893423
0.00893782
0.00894123
0.00894444
0.00894746
0.00895029
0.00895293
0.00895537
0.00895761
0.00895966
0.00896151
0.00896315
0.0089646
0.00896585
0.00896689
0.00896773
0.00896836
0.00896878
0.00896899
0.008969
0.00896879
0.00896837
0.00896773
0.00896688
0.00896581
0.00896452
0.00896301
0.00896128
0.00895932
0.00895715
0.00895474
0.00895211
0.00894925
0.00894615
0.00894283
0.00893928
0.00893549
0.00893147
0.00892721
0.00892272
0.00891799
0.00891303
0.00890783
0.00890239
0.00889673
0.00889083
0.00888471
0.00887836
0.00887178
0.00886499
0.00885799
0.00885079
0.0088434
0.00883583
0.00882809
0.00882019
0.00881217
0.00880404
0.00879583
0.00878757
0.00877929
0.00877105
0.00876287
0.00875483
0.00874698
0.00873938
0.00873211
0.00872525
0.00871886
0.00871303
0.00870781
0.00870325
0.00869937
0.00869609
0.0086933
0.00869071
0.00868787
0.00868406
0.00867818
0.00866864
0.00865295
0.00862886
0.00860441
0.0085796
0.00855442
0.00852888
0.00850298
0.00847671
0.00845008
0.00842308
0.00839572
0.00836799
0.00833989
0.00831143
0.00828261
0.00825342
0.00822386
0.00819393
0.00816364
0.00813298
0.00810196
0.00807057
0.00803881
0.00800669
0.0079742
0.00794135
0.00790812
0.00787454
0.00784058
0.00780626
0.00777158
0.00773653
0.00770111
0.00766533
0.00762918
0.00759267
0.0075558
0.00751856
0.00748096
0.00744299
0.00740467
0.00736597
0.00732692
0.00728751
0.00724773
0.0072076
0.0071671
0.00712624
0.00708503
0.00704345
0.00700152
0.00695923
0.00691659
0.00687358
0.00683023
0.00678651
0.00674245
0.00669803
0.00665326
0.00660813
0.00656266
0.00651683
0.00647066
0.00642414
0.00637727
0.00633005
0.00628249
0.00623458
0.00618633
0.00613774
0.0060888
0.00603953
0.00598991
0.00593996
0.00588967
0.00583904
0.00578808
0.00573678
0.00568515
0.00563319
0.0055809
0.00552828
0.00547533
0.00542206
0.00536846
0.00531453
0.00526029
0.00520572
0.00515084
0.00509563
0.00504011
0.00498428
0.00492813
0.00487167
0.0048149
0.00475782
0.00470044
0.00464275
0.00458475
0.00452646
0.00446786
0.00440897
0.00434978
0.0042903
0.00423052
0.00417046
0.0041101
0.00404946
0.00398854
0.00392733
0.00386585
0.00380408
0.00374205
0.00367974
0.00361716
0.00355431
0.0034912
0.00342783
0.0033642
0.00330031
0.00323618
0.00317179
0.00310716
0.00304228
0.00297717
0.00291182
0.00284624
0.00278044
0.00271441
0.00264817
0.00258172
0.00251506
0.0024482
0.00238115
0.00231391
0.00224649
0.0021789
0.00211114
0.00204324
0.00197518
0.001907
0.00183869
0.00177028
0.00170177
0.00163318
0.00156454
0.00149585
0.00142715
0.00135845
0.00128979
0.00122061
0.00114991
0.00107891
0.00100814
0.000937863
0.00086821
0.000799284
0.000731191
0.000664063
0.000598062
0.000533384
0.000470265
0.000408965
0.000349848
0.000293306
0.000239731
0.000189298
0.000140604
9.55395e-05
5.74327e-05
2.87178e-05
1.09383e-05
2.81229e-06
4.02633e-07
2.49465e-08
5.95517e-09
)
;

boundaryField
{
    top_wall
    {
        type            nutLowReWallFunction;
        value           uniform 0;
    }
    inlet
    {
        type            cyclic;
    }
    bot_wall
    {
        type            nutLowReWallFunction;
        value           uniform 0;
    }
    outlet
    {
        type            cyclic;
    }
    frontAndBack
    {
        type            empty;
    }
}


// ************************************************************************* //
