/*--------------------------------*- C++ -*----------------------------------*\
| =========                 |                                                 |
| \\      /  F ield         | OpenFOAM: The Open Source CFD Toolbox           |
|  \\    /   O peration     | Version:  2406                                  |
|   \\  /    A nd           | Website:  www.openfoam.com                      |
|    \\/     M anipulation  |                                                 |
\*---------------------------------------------------------------------------*/
FoamFile
{
    version     2.0;
    format      ascii;
    arch        "LSB;label=32;scalar=64";
    class       volScalarField;
    location    "22.905";
    object      omega;
}
// * * * * * * * * * * * * * * * * * * * * * * * * * * * * * * * * * * * * * //

dimensions      [0 0 -1 0 0 0 0];

internalField   nonuniform List<scalar> 
1000
(
64000.2
11056.3
3813.11
1885.58
1160.49
820.883
632.207
512.499
429.339
368.043
320.894
283.463
253.068
227.957
206.922
189.096
173.836
160.657
149.185
139.127
130.253
122.377
115.35
109.05
103.376
98.2445
93.5814
89.3252
85.4257
81.841
78.5355
75.4786
72.644
70.0089
67.5533
65.2601
63.114
61.1016
59.2111
57.432
55.7549
54.1715
52.6744
51.2568
49.9128
48.6368
47.4239
46.2697
45.1701
44.1215
43.1203
42.1637
41.2486
40.3727
39.5333
38.7284
37.956
37.2141
36.501
35.8151
35.155
34.5193
33.9066
33.3157
32.7457
32.1953
31.6637
31.1499
30.6531
30.1724
29.7072
29.2566
28.8202
28.3971
27.9869
27.589
27.2028
26.8279
26.4639
26.1101
25.7663
25.4321
25.107
24.7907
24.4829
24.1833
23.8915
23.6072
23.3303
23.0603
22.7972
22.5405
22.2902
22.0459
21.8076
21.5749
21.3477
21.1258
20.909
20.6973
20.4903
20.288
20.0902
19.8968
19.7076
19.5225
19.3414
19.1642
18.9908
18.821
18.6547
18.4918
18.3324
18.1761
18.023
17.873
17.726
17.5818
17.4405
17.302
17.1661
17.0328
16.9021
16.7738
16.648
16.5245
16.4033
16.2843
16.1676
16.0529
15.9403
15.8298
15.7212
15.6145
15.5097
15.4068
15.3057
15.2063
15.1086
15.0126
14.9183
14.8255
14.7343
14.6447
14.5565
14.4698
14.3846
14.3007
14.2183
14.1371
14.0573
13.9788
13.9015
13.8255
13.7507
13.6771
13.6046
13.5333
13.4631
13.394
13.3259
13.259
13.193
13.1281
13.0641
13.0011
12.9391
12.8781
12.8179
12.7587
12.7003
12.6428
12.5862
12.5304
12.4754
12.4212
12.3678
12.3152
12.2631
12.2118
12.161
12.1109
12.0613
12.0124
11.9639
11.9161
11.8688
11.822
11.7757
11.73
11.6848
11.6401
11.5959
11.5522
11.509
11.4662
11.4239
11.3821
11.3407
11.2997
11.2592
11.2191
11.1794
11.1401
11.1013
11.0628
11.0247
10.987
10.9496
10.9126
10.876
10.8397
10.8038
10.7682
10.7329
10.698
10.6634
10.6291
10.595
10.5613
10.5279
10.4948
10.4619
10.4294
10.3971
10.365
10.3333
10.3017
10.2705
10.2394
10.2086
10.1781
10.1478
10.1177
10.0878
10.0581
10.0287
9.99944
9.97039
9.94155
9.9129
9.88444
9.85617
9.82808
9.80016
9.77242
9.74485
9.71745
9.6902
9.66312
9.63619
9.60941
9.58278
9.55629
9.52995
9.50374
9.47766
9.45172
9.4259
9.40021
9.37463
9.34918
9.32384
9.29861
9.27349
9.24847
9.22356
9.19874
9.17403
9.1494
9.12487
9.10043
9.07607
9.05179
9.02759
9.00347
8.97943
8.95546
8.93155
8.90772
8.88394
8.86023
8.83658
8.81299
8.78945
8.76596
8.74253
8.71914
8.69579
8.67249
8.64923
8.626
8.60282
8.57967
8.55654
8.53345
8.51039
8.48735
8.46433
8.44134
8.41836
8.3954
8.37246
8.34953
8.3266
8.30369
8.28079
8.25789
8.23499
8.21209
8.18919
8.16629
8.14338
8.12046
8.09754
8.0746
8.05166
8.02869
8.00571
7.98272
7.9597
7.93666
7.91359
7.8905
7.86738
7.84423
7.82104
7.79782
7.77457
7.75127
7.72792
7.70453
7.68109
7.65758
7.63401
7.61037
7.58666
7.56285
7.53895
7.51504
7.4912
7.46743
7.44375
7.42015
7.39664
7.37323
7.34992
7.3267
7.30359
7.2806
7.25772
7.23496
7.21235
7.18989
7.16759
7.14546
7.12352
7.10177
7.08015
7.05865
7.03729
7.01605
6.99494
6.97395
6.95309
6.93235
6.91173
6.89124
6.87085
6.85059
6.83043
6.81039
6.79046
6.77063
6.75092
6.7313
6.71179
6.69238
6.67307
6.65385
6.63473
6.6157
6.59676
6.57792
6.55916
6.54048
6.52189
6.50339
6.48496
6.46661
6.44835
6.43015
6.41203
6.39399
6.37601
6.35811
6.34028
6.32251
6.30481
6.28717
6.2696
6.25209
6.23464
6.21726
6.19993
6.18266
6.16545
6.1483
6.13121
6.11417
6.09719
6.08026
6.06339
6.04657
6.02981
6.0131
5.99645
5.97985
5.96331
5.94682
5.93038
5.91401
5.89768
5.88142
5.86521
5.84906
5.83296
5.81693
5.80096
5.78504
5.76919
5.7534
5.73768
5.72202
5.70642
5.6909
5.67544
5.66005
5.64473
5.62948
5.61431
5.59921
5.58418
5.56923
5.55436
5.53956
5.52485
5.51021
5.49565
5.48118
5.46679
5.45248
5.43825
5.4241
5.41004
5.39606
5.3822
5.36855
5.35514
5.34198
5.32907
5.31641
5.30401
5.29188
5.28001
5.26842
5.2571
5.24606
5.2353
5.22484
5.21467
5.2048
5.19523
5.18597
5.17701
5.16837
5.16005
5.15205
5.14437
5.13702
5.13
5.12332
5.11697
5.11096
5.1053
5.09997
5.095
5.09037
5.0861
5.08217
5.0786
5.07538
5.07253
5.07002
5.06788
5.06609
5.06466
5.06359
5.06287
5.06252
5.06252
5.06287
5.06359
5.06466
5.06609
5.06788
5.07002
5.07252
5.07538
5.0786
5.08217
5.08609
5.09037
5.095
5.09997
5.10529
5.11096
5.11697
5.12332
5.13
5.13702
5.14437
5.15205
5.16005
5.16837
5.17701
5.18596
5.19523
5.2048
5.21467
5.22484
5.2353
5.24606
5.25709
5.26841
5.28001
5.29188
5.30401
5.31641
5.32907
5.34198
5.35514
5.36855
5.3822
5.39605
5.41004
5.4241
5.43825
5.45248
5.46679
5.48118
5.49565
5.51021
5.52485
5.53956
5.55436
5.56923
5.58418
5.59921
5.61431
5.62948
5.64473
5.66005
5.67544
5.6909
5.70643
5.72202
5.73768
5.75341
5.76919
5.78505
5.80096
5.81693
5.83297
5.84906
5.86521
5.88142
5.89769
5.91401
5.93039
5.94682
5.96331
5.97985
5.99645
6.01311
6.02981
6.04658
6.06339
6.08026
6.09719
6.11417
6.13121
6.14831
6.16546
6.18267
6.19994
6.21726
6.23465
6.2521
6.26961
6.28718
6.30481
6.32251
6.34028
6.35812
6.37602
6.394
6.41204
6.43016
6.44835
6.46662
6.48497
6.50339
6.5219
6.54049
6.55917
6.57792
6.59677
6.61571
6.63474
6.65386
6.67307
6.69239
6.7118
6.73131
6.75092
6.77064
6.79047
6.8104
6.83044
6.8506
6.87086
6.89124
6.91174
6.93236
6.9531
6.97396
6.99495
7.01606
7.0373
7.05866
7.08016
7.10178
7.12354
7.14548
7.1676
7.1899
7.21236
7.23498
7.25773
7.28061
7.30361
7.32672
7.34993
7.37325
7.39666
7.42017
7.44376
7.46745
7.49121
7.51506
7.53897
7.56287
7.58667
7.61039
7.63403
7.6576
7.68111
7.70455
7.72795
7.75129
7.77459
7.79785
7.82107
7.84425
7.8674
7.89052
7.91362
7.93668
7.95972
7.98274
8.00574
8.02872
8.05168
8.07463
8.09757
8.12049
8.14341
8.16632
8.18922
8.21212
8.23502
8.25792
8.28082
8.30372
8.32664
8.34956
8.37249
8.39544
8.4184
8.44137
8.46437
8.48738
8.51042
8.53349
8.55658
8.5797
8.60285
8.62604
8.64926
8.67253
8.69583
8.71917
8.74256
8.766
8.78949
8.81303
8.83662
8.86027
8.88398
8.90775
8.93159
8.9555
8.97947
9.00351
9.02763
9.05183
9.07611
9.10047
9.12491
9.14944
9.17407
9.19879
9.2236
9.24851
9.27353
9.29865
9.32388
9.34922
9.37467
9.40025
9.42594
9.45176
9.4777
9.50378
9.52999
9.55633
9.58282
9.60945
9.63623
9.66316
9.69024
9.71749
9.74489
9.77246
9.8002
9.82812
9.85621
9.88448
9.91294
9.94159
9.97044
9.99948
10.0287
10.0582
10.0878
10.1177
10.1478
10.1781
10.2087
10.2395
10.2705
10.3018
10.3333
10.3651
10.3971
10.4294
10.462
10.4948
10.528
10.5614
10.5951
10.6291
10.6634
10.698
10.733
10.7682
10.8038
10.8398
10.876
10.9127
10.9497
10.987
11.0247
11.0628
11.1013
11.1402
11.1794
11.2191
11.2592
11.2997
11.3407
11.3821
11.4239
11.4662
11.509
11.5522
11.5959
11.6401
11.6848
11.7301
11.7758
11.822
11.8688
11.9161
11.964
12.0124
12.0614
12.1109
12.1611
12.2118
12.2632
12.3152
12.3679
12.4213
12.4754
12.5304
12.5862
12.6428
12.7003
12.7587
12.8179
12.8781
12.9392
13.0012
13.0642
13.1281
13.193
13.259
13.326
13.394
13.4631
13.5333
13.6046
13.6771
13.7507
13.8255
13.9016
13.9788
14.0574
14.1372
14.2183
14.3008
14.3846
14.4699
14.5566
14.6447
14.7344
14.8255
14.9183
15.0127
15.1086
15.2063
15.3057
15.4068
15.5098
15.6145
15.7212
15.8298
15.9403
16.0529
16.1676
16.2844
16.4033
16.5245
16.648
16.7739
16.9021
17.0328
17.1661
17.302
17.4405
17.5818
17.726
17.873
18.023
18.1761
18.3324
18.4919
18.6547
18.821
18.9908
19.1642
19.3415
19.5225
19.7076
19.8968
20.0902
20.288
20.4903
20.6973
20.9091
21.1258
21.3477
21.5749
21.8076
22.046
22.2902
22.5405
22.7972
23.0603
23.3303
23.6072
23.8915
24.1833
24.4829
24.7907
25.107
25.4321
25.7663
26.1101
26.4639
26.8279
27.2028
27.589
27.9869
28.3971
28.8202
29.2566
29.7072
30.1724
30.6531
31.1499
31.6637
32.1953
32.7457
33.3157
33.9066
34.5192
35.155
35.8151
36.501
37.214
37.9559
38.7284
39.5333
40.3726
41.2486
42.1637
43.1203
44.1214
45.1701
46.2697
47.4239
48.6367
49.9128
51.2568
52.6744
54.1715
55.7549
57.432
59.2111
61.1016
63.114
65.2601
67.5533
70.0088
72.644
75.4786
78.5355
81.841
85.4257
89.3252
93.5814
98.2444
103.376
109.05
115.349
122.377
130.253
139.127
149.185
160.657
173.836
189.096
206.922
227.957
253.068
283.463
320.894
368.043
429.339
512.499
632.207
820.882
1160.49
1885.58
3813.11
11056.3
64000.2
)
;

boundaryField
{
    top_wall
    {
        type            omegaWallFunction;
        blending        binomial;
        n               2;
        value           uniform 64000.2;
    }
    inlet
    {
        type            cyclic;
    }
    bot_wall
    {
        type            omegaWallFunction;
        blending        binomial;
        n               2;
        value           uniform 64000.2;
    }
    outlet
    {
        type            cyclic;
    }
    frontAndBack
    {
        type            empty;
    }
}


// ************************************************************************* //
