/*--------------------------------*- C++ -*----------------------------------*\
| =========                 |                                                 |
| \\      /  F ield         | OpenFOAM: The Open Source CFD Toolbox           |
|  \\    /   O peration     | Version:  2406                                  |
|   \\  /    A nd           | Website:  www.openfoam.com                      |
|    \\/     M anipulation  |                                                 |
\*---------------------------------------------------------------------------*/
FoamFile
{
    version     2.0;
    format      ascii;
    arch        "LSB;label=32;scalar=64";
    class       surfaceScalarField;
    location    "22.905";
    object      phi;
}
// * * * * * * * * * * * * * * * * * * * * * * * * * * * * * * * * * * * * * //

dimensions      [0 3 -1 0 0 0 0];

oriented        oriented;

internalField   nonuniform List<scalar> 
999
(
-7.13012e-19
-7.15639e-19
-7.13171e-19
-7.10303e-19
-7.0521e-19
-6.9996e-19
-7.08864e-19
-7.16609e-19
-6.59209e-19
-6.55695e-19
-6.88016e-19
-6.76708e-19
-7.35913e-19
-7.28654e-19
-7.64039e-19
-7.62787e-19
-7.63579e-19
-7.65711e-19
-7.71178e-19
-7.76142e-19
-7.76959e-19
-7.73131e-19
-7.70623e-19
-7.67759e-19
-7.64455e-19
-7.62975e-19
-7.55439e-19
-7.49794e-19
-7.43798e-19
-7.38076e-19
-7.326e-19
-7.27346e-19
-7.22293e-19
-7.17421e-19
-7.12717e-19
-7.08165e-19
-7.03755e-19
-6.99475e-19
-6.95317e-19
-6.91273e-19
-6.87334e-19
-6.83495e-19
-6.79748e-19
-6.76089e-19
-6.72511e-19
-6.6901e-19
-6.6558e-19
-6.62217e-19
-6.58916e-19
-6.55672e-19
-6.52482e-19
-6.4934e-19
-6.46243e-19
-6.43186e-19
-6.40164e-19
-6.37174e-19
-6.34212e-19
-6.31272e-19
-6.28352e-19
-6.25447e-19
-6.22553e-19
-6.19665e-19
-6.1678e-19
-6.13893e-19
-6.11e-19
-6.08098e-19
-6.05181e-19
-6.02246e-19
-5.99289e-19
-5.96305e-19
-5.93291e-19
-5.90241e-19
-5.87153e-19
-5.84021e-19
-5.80842e-19
-5.7761e-19
-5.74323e-19
-5.70976e-19
-5.67563e-19
-5.64082e-19
-5.60528e-19
-5.56896e-19
-5.53183e-19
-5.49383e-19
-5.45492e-19
-5.41507e-19
-5.37422e-19
-5.33233e-19
-5.28936e-19
-5.24526e-19
-5.19999e-19
-5.15351e-19
-5.10576e-19
-5.05671e-19
-5.0063e-19
-4.95451e-19
-4.90129e-19
-4.84659e-19
-4.79038e-19
-4.73298e-19
-4.6747e-19
-4.61551e-19
-4.55536e-19
-4.49425e-19
-4.43215e-19
-4.36905e-19
-4.30498e-19
-4.23996e-19
-4.17403e-19
-4.10727e-19
-4.03976e-19
-3.97164e-19
-3.90308e-19
-3.83427e-19
-3.76517e-19
-3.69572e-19
-3.62623e-19
-3.55696e-19
-3.48822e-19
-3.42034e-19
-3.35372e-19
-3.28849e-19
-3.22479e-19
-3.16307e-19
-3.1038e-19
-3.04748e-19
-2.99432e-19
-2.94457e-19
-2.89877e-19
-2.8575e-19
-2.82141e-19
-2.79131e-19
-2.76819e-19
-2.75309e-19
-2.74742e-19
-2.75339e-19
-2.77327e-19
-2.7982e-19
-2.83832e-19
-2.94488e-19
-2.80189e-19
-2.90999e-19
-2.95317e-19
-2.98151e-19
-3.00528e-19
-3.01576e-19
-3.01532e-19
-3.00595e-19
-2.98908e-19
-2.96602e-19
-2.93776e-19
-2.90508e-19
-2.86861e-19
-2.82891e-19
-2.78652e-19
-2.74169e-19
-2.69465e-19
-2.64583e-19
-2.59565e-19
-2.5445e-19
-2.49253e-19
-2.43988e-19
-2.38687e-19
-2.33382e-19
-2.28101e-19
-2.22866e-19
-2.177e-19
-2.12621e-19
-2.10047e-19
-2.06871e-19
-2.01716e-19
-2.51983e-19
-2.46965e-19
-2.44071e-19
-2.42058e-19
-2.37814e-19
-2.33749e-19
-2.29908e-19
-2.26292e-19
-2.22906e-19
-2.19777e-19
-2.16935e-19
-2.14414e-19
-2.1225e-19
-2.10459e-19
-2.09057e-19
-2.08083e-19
-2.0755e-19
-2.07469e-19
-2.07864e-19
-2.08754e-19
-2.1012e-19
-2.11928e-19
-2.14141e-19
-2.16689e-19
-2.1946e-19
-2.22319e-19
-2.25118e-19
-2.277e-19
-2.2994e-19
-2.33439e-19
-2.36152e-19
-2.26349e-19
-2.47046e-19
-2.37345e-19
-2.40292e-19
-2.4419e-19
-2.46969e-19
-2.5023e-19
-2.53849e-19
-2.57668e-19
-2.61542e-19
-2.65336e-19
-2.68942e-19
-2.72292e-19
-2.7535e-19
-2.78082e-19
-2.80475e-19
-2.8255e-19
-2.84315e-19
-2.8578e-19
-2.86984e-19
-2.87965e-19
-2.88739e-19
-2.89322e-19
-2.89751e-19
-2.90057e-19
-2.9027e-19
-2.90399e-19
-2.90447e-19
-2.90438e-19
-2.90391e-19
-2.90323e-19
-2.90246e-19
-2.90171e-19
-2.90106e-19
-2.90057e-19
-2.90029e-19
-2.90025e-19
-2.90046e-19
-2.90094e-19
-2.90167e-19
-2.90265e-19
-2.90384e-19
-2.90524e-19
-2.9068e-19
-2.9085e-19
-2.91031e-19
-2.91219e-19
-2.91412e-19
-2.91607e-19
-2.918e-19
-2.91989e-19
-2.92171e-19
-2.92345e-19
-2.92508e-19
-2.92657e-19
-2.92791e-19
-2.92909e-19
-2.93009e-19
-2.9309e-19
-2.9315e-19
-2.93188e-19
-2.93204e-19
-2.93197e-19
-2.93165e-19
-2.93109e-19
-2.93027e-19
-2.9292e-19
-2.92787e-19
-2.92628e-19
-2.92442e-19
-2.92229e-19
-2.9199e-19
-2.91723e-19
-2.9143e-19
-2.9111e-19
-2.90763e-19
-2.9039e-19
-2.8999e-19
-2.89564e-19
-2.89112e-19
-2.88634e-19
-2.88131e-19
-2.87602e-19
-2.87048e-19
-2.8647e-19
-2.85868e-19
-2.85242e-19
-2.84593e-19
-2.83921e-19
-2.83226e-19
-2.82509e-19
-2.81771e-19
-2.81012e-19
-2.80232e-19
-2.79432e-19
-2.78613e-19
-2.77774e-19
-2.76917e-19
-2.76042e-19
-2.75149e-19
-2.74239e-19
-2.73312e-19
-2.72369e-19
-2.71411e-19
-2.70437e-19
-2.69449e-19
-2.68447e-19
-2.6743e-19
-2.66401e-19
-2.65359e-19
-2.64304e-19
-2.63238e-19
-2.6216e-19
-2.61071e-19
-2.59971e-19
-2.58861e-19
-2.57742e-19
-2.56612e-19
-2.55474e-19
-2.54327e-19
-2.53171e-19
-2.52007e-19
-2.50836e-19
-2.49657e-19
-2.4847e-19
-2.47277e-19
-2.46077e-19
-2.44871e-19
-2.43658e-19
-2.4244e-19
-2.41215e-19
-2.39985e-19
-2.38748e-19
-2.37506e-19
-2.36258e-19
-2.35004e-19
-2.33745e-19
-2.3248e-19
-2.31209e-19
-2.29934e-19
-2.28653e-19
-2.27368e-19
-2.2608e-19
-2.24789e-19
-2.23497e-19
-2.22206e-19
-2.20917e-19
-2.19633e-19
-2.18357e-19
-2.17093e-19
-2.15843e-19
-2.14611e-19
-2.13398e-19
-2.12204e-19
-2.11029e-19
-2.09864e-19
-2.08702e-19
-2.07541e-19
-2.0638e-19
-2.05219e-19
-2.04058e-19
-2.02898e-19
-2.01738e-19
-2.00579e-19
-1.9942e-19
-1.98262e-19
-1.97105e-19
-1.95948e-19
-1.94792e-19
-1.93638e-19
-1.92484e-19
-1.91331e-19
-1.90179e-19
-1.89028e-19
-1.87878e-19
-1.8673e-19
-1.85583e-19
-1.84437e-19
-1.83293e-19
-1.8215e-19
-1.81009e-19
-1.79869e-19
-1.7873e-19
-1.77594e-19
-1.76459e-19
-1.75325e-19
-1.74194e-19
-1.73064e-19
-1.71937e-19
-1.70811e-19
-1.69687e-19
-1.68565e-19
-1.67445e-19
-1.66328e-19
-1.65212e-19
-1.64099e-19
-1.62988e-19
-1.6188e-19
-1.60773e-19
-1.59669e-19
-1.58568e-19
-1.57469e-19
-1.56373e-19
-1.55279e-19
-1.54188e-19
-1.531e-19
-1.52014e-19
-1.50931e-19
-1.49851e-19
-1.48774e-19
-1.477e-19
-1.46628e-19
-1.4556e-19
-1.44495e-19
-1.43433e-19
-1.42374e-19
-1.41318e-19
-1.40266e-19
-1.39216e-19
-1.3817e-19
-1.37128e-19
-1.36089e-19
-1.35053e-19
-1.34021e-19
-1.32992e-19
-1.31967e-19
-1.30946e-19
-1.29928e-19
-1.28914e-19
-1.27904e-19
-1.26898e-19
-1.25895e-19
-1.24897e-19
-1.23902e-19
-1.22911e-19
-1.21925e-19
-1.20942e-19
-1.19963e-19
-1.18989e-19
-1.18019e-19
-1.17053e-19
-1.16091e-19
-1.15134e-19
-1.14181e-19
-1.13232e-19
-1.12288e-19
-1.11348e-19
-1.10413e-19
-1.09482e-19
-1.08556e-19
-1.07634e-19
-1.06717e-19
-1.05805e-19
-1.04898e-19
-1.03995e-19
-1.03097e-19
-1.02204e-19
-1.01316e-19
-1.00432e-19
-9.95536e-20
-9.868e-20
-9.78113e-20
-9.69476e-20
-9.60888e-20
-9.52351e-20
-9.43863e-20
-9.35426e-20
-9.27039e-20
-9.18702e-20
-9.10417e-20
-9.02182e-20
-8.93998e-20
-8.85866e-20
-8.77785e-20
-8.69756e-20
-8.61778e-20
-8.53852e-20
-8.45977e-20
-8.38155e-20
-8.30385e-20
-8.22667e-20
-8.15002e-20
-8.07389e-20
-7.99828e-20
-7.9232e-20
-7.84865e-20
-7.77463e-20
-7.70113e-20
-7.62816e-20
-7.55572e-20
-7.48372e-20
-7.41205e-20
-7.34073e-20
-7.26974e-20
-7.19913e-20
-7.12897e-20
-7.05921e-20
-6.98985e-20
-6.92089e-20
-6.85233e-20
-6.78418e-20
-6.71647e-20
-6.64914e-20
-6.58216e-20
-6.51552e-20
-6.44922e-20
-6.38335e-20
-6.31803e-20
-6.25323e-20
-6.18897e-20
-6.12524e-20
-6.06204e-20
-5.99938e-20
-5.93724e-20
-5.87564e-20
-5.81456e-20
-5.75401e-20
-5.69399e-20
-5.6345e-20
-5.57553e-20
-5.51708e-20
-5.45916e-20
-5.40176e-20
-5.34487e-20
-5.2885e-20
-5.23265e-20
-5.17732e-20
-5.12249e-20
-5.06818e-20
-5.01437e-20
-4.96107e-20
-4.90828e-20
-4.85599e-20
-4.80419e-20
-4.7529e-20
-4.7021e-20
-4.65179e-20
-4.60198e-20
-4.55265e-20
-4.50381e-20
-4.45546e-20
-4.40758e-20
-4.36018e-20
-4.31326e-20
-4.26681e-20
-4.22083e-20
-4.17533e-20
-4.13029e-20
-4.08571e-20
-4.04159e-20
-3.99794e-20
-3.95474e-20
-3.91199e-20
-3.8697e-20
-3.82785e-20
-3.78645e-20
-3.74549e-20
-3.70497e-20
-3.66489e-20
-3.62524e-20
-3.58602e-20
-3.54723e-20
-3.50886e-20
-3.47091e-20
-3.43339e-20
-3.39627e-20
-3.35957e-20
-3.32327e-20
-3.28738e-20
-3.2519e-20
-3.2168e-20
-3.18211e-20
-3.14781e-20
-3.11389e-20
-3.08036e-20
-3.04721e-20
-3.01444e-20
-2.98204e-20
-2.95002e-20
-2.91836e-20
-2.88707e-20
-2.85613e-20
-2.82556e-20
-2.79534e-20
-2.76547e-20
-2.73595e-20
-2.70677e-20
-2.67793e-20
-2.64943e-20
-2.62127e-20
-2.59343e-20
-2.56593e-20
-2.53874e-20
-2.51188e-20
-2.48533e-20
-2.4591e-20
-2.43318e-20
-2.40756e-20
-2.38225e-20
-2.35724e-20
-2.33253e-20
-2.30811e-20
-2.28398e-20
-2.26015e-20
-2.23659e-20
-2.21332e-20
-2.19032e-20
-2.16761e-20
-2.14516e-20
-2.12298e-20
-2.10107e-20
-2.07942e-20
-2.05803e-20
-2.0369e-20
-2.01603e-20
-1.9954e-20
-1.97502e-20
-1.95489e-20
-1.935e-20
-1.91535e-20
-1.89594e-20
-1.87676e-20
-1.85781e-20
-1.83909e-20
-1.82059e-20
-1.80232e-20
-1.78427e-20
-1.76644e-20
-1.74882e-20
-1.73141e-20
-1.71421e-20
-1.69722e-20
-1.68044e-20
-1.66385e-20
-1.64747e-20
-1.63128e-20
-1.61529e-20
-1.59949e-20
-1.58388e-20
-1.56846e-20
-1.55317e-20
-1.53793e-20
-1.52264e-20
-1.50727e-20
-1.49183e-20
-1.47634e-20
-1.46084e-20
-1.44536e-20
-1.42994e-20
-1.41461e-20
-1.3994e-20
-1.38433e-20
-1.36942e-20
-1.35468e-20
-1.34011e-20
-1.32572e-20
-1.31152e-20
-1.2975e-20
-1.28366e-20
-1.27e-20
-1.25652e-20
-1.24321e-20
-1.23007e-20
-1.21709e-20
-1.20427e-20
-1.19161e-20
-1.17911e-20
-1.16675e-20
-1.15454e-20
-1.14248e-20
-1.13056e-20
-1.11878e-20
-1.10714e-20
-1.09563e-20
-1.08427e-20
-1.07303e-20
-1.06193e-20
-1.05095e-20
-1.04011e-20
-1.02939e-20
-1.0188e-20
-1.00833e-20
-9.97982e-21
-9.87757e-21
-9.77652e-21
-9.67665e-21
-9.57794e-21
-9.48039e-21
-9.38399e-21
-9.2887e-21
-9.19453e-21
-9.10147e-21
-9.00948e-21
-8.91857e-21
-8.82872e-21
-8.73992e-21
-8.65215e-21
-8.56541e-21
-8.47968e-21
-8.39494e-21
-8.31119e-21
-8.22841e-21
-8.1466e-21
-8.06573e-21
-7.98581e-21
-7.90681e-21
-7.82873e-21
-7.75155e-21
-7.67527e-21
-7.59988e-21
-7.52535e-21
-7.45169e-21
-7.37888e-21
-7.30691e-21
-7.23577e-21
-7.16546e-21
-7.09596e-21
-7.02725e-21
-6.95934e-21
-6.89222e-21
-6.82586e-21
-6.76028e-21
-6.69544e-21
-6.63135e-21
-6.568e-21
-6.50538e-21
-6.44347e-21
-6.38228e-21
-6.32178e-21
-6.26198e-21
-6.20287e-21
-6.14443e-21
-6.08667e-21
-6.02956e-21
-5.97311e-21
-5.9173e-21
-5.86213e-21
-5.80759e-21
-5.75367e-21
-5.70037e-21
-5.64767e-21
-5.59557e-21
-5.54407e-21
-5.49316e-21
-5.44282e-21
-5.39306e-21
-5.34386e-21
-5.29522e-21
-5.24713e-21
-5.19959e-21
-5.15259e-21
-5.10612e-21
-5.06018e-21
-5.01475e-21
-4.96984e-21
-4.92545e-21
-4.88155e-21
-4.83815e-21
-4.79523e-21
-4.75281e-21
-4.71086e-21
-4.66938e-21
-4.62838e-21
-4.58783e-21
-4.54774e-21
-4.50811e-21
-4.46892e-21
-4.43017e-21
-4.39185e-21
-4.35397e-21
-4.31651e-21
-4.27947e-21
-4.24285e-21
-4.20664e-21
-4.17084e-21
-4.13544e-21
-4.10043e-21
-4.06582e-21
-4.03159e-21
-3.99774e-21
-3.96428e-21
-3.93119e-21
-3.89847e-21
-3.86611e-21
-3.83412e-21
-3.80248e-21
-3.7712e-21
-3.74027e-21
-3.70968e-21
-3.67943e-21
-3.64952e-21
-3.61995e-21
-3.5907e-21
-3.56179e-21
-3.53319e-21
-3.50492e-21
-3.47696e-21
-3.44931e-21
-3.42198e-21
-3.39495e-21
-3.36822e-21
-3.3418e-21
-3.31568e-21
-3.28985e-21
-3.26432e-21
-3.23907e-21
-3.21412e-21
-3.18946e-21
-3.16508e-21
-3.14099e-21
-3.11718e-21
-3.09366e-21
-3.07042e-21
-3.04746e-21
-3.02479e-21
-3.00239e-21
-2.98028e-21
-2.95844e-21
-2.93688e-21
-2.9156e-21
-2.89457e-21
-2.8738e-21
-2.85326e-21
-2.83295e-21
-2.81285e-21
-2.79296e-21
-2.77329e-21
-2.75381e-21
-2.73455e-21
-2.71548e-21
-2.69662e-21
-2.67795e-21
-2.65947e-21
-2.64119e-21
-2.6231e-21
-2.6052e-21
-2.58748e-21
-2.56994e-21
-2.55259e-21
-2.53542e-21
-2.51842e-21
-2.5016e-21
-2.48495e-21
-2.46847e-21
-2.45216e-21
-2.43602e-21
-2.42004e-21
-2.40423e-21
-2.38858e-21
-2.37308e-21
-2.35775e-21
-2.34256e-21
-2.32754e-21
-2.31266e-21
-2.29793e-21
-2.28335e-21
-2.26892e-21
-2.25463e-21
-2.24048e-21
-2.22648e-21
-2.21261e-21
-2.19888e-21
-2.18529e-21
-2.17183e-21
-2.1585e-21
-2.1453e-21
-2.13224e-21
-2.1193e-21
-2.10648e-21
-2.09379e-21
-2.08122e-21
-2.06878e-21
-2.05645e-21
-2.04424e-21
-2.03214e-21
-2.02017e-21
-2.0083e-21
-1.99655e-21
-1.9849e-21
-1.97337e-21
-1.96194e-21
-1.95061e-21
-1.9394e-21
-1.92828e-21
-1.91726e-21
-1.90635e-21
-1.89553e-21
-1.88481e-21
-1.87418e-21
-1.86365e-21
-1.85321e-21
-1.84286e-21
-1.8326e-21
-1.82243e-21
-1.81234e-21
-1.80234e-21
-1.79242e-21
-1.78258e-21
-1.77283e-21
-1.76315e-21
-1.75355e-21
-1.74402e-21
-1.73457e-21
-1.72519e-21
-1.71589e-21
-1.70665e-21
-1.69748e-21
-1.68837e-21
-1.67933e-21
-1.67036e-21
-1.66144e-21
-1.65259e-21
-1.64379e-21
-1.63505e-21
-1.62636e-21
-1.61772e-21
-1.60914e-21
-1.6006e-21
-1.59211e-21
-1.58367e-21
-1.57527e-21
-1.56691e-21
-1.55858e-21
-1.5503e-21
-1.54205e-21
-1.53383e-21
-1.52564e-21
-1.51748e-21
-1.50934e-21
-1.50123e-21
-1.49313e-21
-1.48505e-21
-1.47699e-21
-1.46893e-21
-1.46089e-21
-1.45285e-21
-1.44481e-21
-1.43677e-21
-1.42872e-21
-1.42067e-21
-1.4126e-21
-1.40451e-21
-1.3964e-21
-1.38826e-21
-1.3801e-21
-1.37189e-21
-1.36365e-21
-1.35535e-21
-1.347e-21
-1.33859e-21
-1.33012e-21
-1.32157e-21
-1.31293e-21
-1.30421e-21
-1.29538e-21
-1.28645e-21
-1.27739e-21
-1.26821e-21
-1.25887e-21
-1.24938e-21
-1.23972e-21
-1.22987e-21
-1.21982e-21
-1.20954e-21
-1.19902e-21
-1.18823e-21
-1.17714e-21
-1.16573e-21
-1.15397e-21
-1.14182e-21
-1.12923e-21
-1.11618e-21
-1.10258e-21
-1.08838e-21
-1.07349e-21
-1.05783e-21
-1.04131e-21
-1.0238e-21
-1.00518e-21
-9.85286e-22
-9.63942e-22
-9.40922e-22
-9.1596e-22
-8.88731e-22
-8.58844e-22
-8.25826e-22
-7.89103e-22
-7.47978e-22
-7.01541e-22
-6.48581e-22
-5.87794e-22
-5.18343e-22
-4.40568e-22
-3.56372e-22
-2.68521e-22
-1.79252e-22
-8.96452e-23
)
;

boundaryField
{
    top_wall
    {
        type            calculated;
        value           uniform 0;
    }
    inlet
    {
        type            cyclic;
        value           nonuniform List<scalar> 
1000
(
-1.13539e-05
-3.40161e-05
-5.66122e-05
-7.90088e-05
-0.000100793
-0.000121254
-0.000139723
-0.000155928
-0.000169987
-0.000182217
-0.000192964
-0.000202494
-0.000211002
-0.000218646
-0.000225557
-0.000231844
-0.000237594
-0.000242883
-0.00024777
-0.000252306
-0.000256533
-0.000260488
-0.000264199
-0.000267693
-0.000270993
-0.000274118
-0.000277087
-0.000279916
-0.000282619
-0.000285205
-0.000287683
-0.000290063
-0.000292351
-0.000294554
-0.000296677
-0.000298727
-0.000300708
-0.000302624
-0.00030448
-0.000306279
-0.000308024
-0.000309718
-0.000311365
-0.000312967
-0.000314526
-0.000316044
-0.000317524
-0.000318967
-0.000320375
-0.00032175
-0.000323093
-0.000324406
-0.00032569
-0.000326946
-0.000328176
-0.000329381
-0.000330561
-0.000331717
-0.000332851
-0.000333964
-0.000335056
-0.000336128
-0.00033718
-0.000338214
-0.000339231
-0.00034023
-0.000341212
-0.000342178
-0.000343128
-0.000344064
-0.000344985
-0.000345891
-0.000346785
-0.000347664
-0.000348531
-0.000349386
-0.000350229
-0.00035106
-0.000351879
-0.000352687
-0.000353485
-0.000354273
-0.00035505
-0.000355817
-0.000356575
-0.000357323
-0.000358062
-0.000358793
-0.000359515
-0.000360228
-0.000360934
-0.000361631
-0.00036232
-0.000363002
-0.000363677
-0.000364344
-0.000365005
-0.000365658
-0.000366305
-0.000366945
-0.000367578
-0.000368206
-0.000368827
-0.000369442
-0.000370052
-0.000370656
-0.000371254
-0.000371847
-0.000372434
-0.000373016
-0.000373593
-0.000374165
-0.000374732
-0.000375294
-0.000375851
-0.000376404
-0.000376952
-0.000377496
-0.000378036
-0.000378571
-0.000379102
-0.000379629
-0.000380152
-0.000380671
-0.000381186
-0.000381697
-0.000382205
-0.000382709
-0.000383209
-0.000383706
-0.000384199
-0.000384689
-0.000385176
-0.000385659
-0.000386139
-0.000386616
-0.00038709
-0.000387561
-0.000388029
-0.000388494
-0.000388956
-0.000389415
-0.000389871
-0.000390325
-0.000390776
-0.000391224
-0.00039167
-0.000392113
-0.000392554
-0.000392992
-0.000393428
-0.000393861
-0.000394292
-0.00039472
-0.000395147
-0.000395571
-0.000395993
-0.000396412
-0.00039683
-0.000397245
-0.000397659
-0.00039807
-0.000398479
-0.000398887
-0.000399292
-0.000399696
-0.000400097
-0.000400497
-0.000400895
-0.000401291
-0.000401685
-0.000402078
-0.000402468
-0.000402858
-0.000403245
-0.000403631
-0.000404015
-0.000404398
-0.000404781
-0.000405162
-0.000405543
-0.000405923
-0.000406302
-0.000406681
-0.000407058
-0.000407435
-0.000407811
-0.000408187
-0.000408561
-0.000408934
-0.000409307
-0.000409679
-0.000410049
-0.000410419
-0.000410787
-0.000411155
-0.000411522
-0.000411887
-0.000412252
-0.000412616
-0.000412978
-0.00041334
-0.000413701
-0.000414061
-0.000414419
-0.000414777
-0.000415134
-0.00041549
-0.000415845
-0.000416199
-0.000416552
-0.000416904
-0.000417256
-0.000417606
-0.000417956
-0.000418304
-0.000418652
-0.000418999
-0.000419345
-0.00041969
-0.000420034
-0.000420378
-0.00042072
-0.000421062
-0.000421403
-0.000421743
-0.000422082
-0.00042242
-0.000422758
-0.000423095
-0.000423431
-0.000423766
-0.0004241
-0.000424434
-0.000424767
-0.000425099
-0.00042543
-0.000425761
-0.000426091
-0.00042642
-0.000426748
-0.000427076
-0.000427403
-0.000427729
-0.000428054
-0.000428379
-0.000428703
-0.000429026
-0.000429348
-0.00042967
-0.000429991
-0.000430311
-0.000430631
-0.00043095
-0.000431268
-0.000431585
-0.000431902
-0.000432218
-0.000432534
-0.000432848
-0.000433162
-0.000433476
-0.000433788
-0.0004341
-0.000434412
-0.000434722
-0.000435032
-0.000435342
-0.00043565
-0.000435958
-0.000436265
-0.000436572
-0.000436878
-0.000437183
-0.000437488
-0.000437792
-0.000438095
-0.000438397
-0.000438699
-0.000439001
-0.000439301
-0.000439601
-0.000439901
-0.000440199
-0.000440497
-0.000440795
-0.000441091
-0.000441387
-0.000441683
-0.000441977
-0.000442272
-0.000442565
-0.000442858
-0.00044315
-0.000443441
-0.000443732
-0.000444022
-0.000444312
-0.000444601
-0.000444889
-0.000445176
-0.000445463
-0.000445749
-0.000446035
-0.00044632
-0.000446604
-0.000446887
-0.00044717
-0.000447453
-0.000447734
-0.000448015
-0.000448295
-0.000448575
-0.000448854
-0.000449132
-0.000449409
-0.000449686
-0.000449962
-0.000450238
-0.000450513
-0.000450787
-0.00045106
-0.000451333
-0.000451605
-0.000451876
-0.000452147
-0.000452416
-0.000452686
-0.000452954
-0.000453222
-0.000453489
-0.000453756
-0.000454021
-0.000454287
-0.000454551
-0.000454816
-0.000455079
-0.000455342
-0.000455605
-0.000455867
-0.000456129
-0.00045639
-0.000456651
-0.000456912
-0.000457172
-0.000457431
-0.000457689
-0.000457946
-0.000458201
-0.000458454
-0.000458705
-0.000458952
-0.000459196
-0.000459436
-0.000459671
-0.000459901
-0.000460126
-0.000460347
-0.000460566
-0.000460785
-0.000461002
-0.000461218
-0.000461433
-0.000461647
-0.00046186
-0.000462072
-0.000462283
-0.000462493
-0.000462703
-0.000462911
-0.000463118
-0.000463324
-0.000463529
-0.000463733
-0.000463936
-0.000464138
-0.000464339
-0.000464539
-0.000464737
-0.000464935
-0.000465132
-0.000465327
-0.000465522
-0.000465715
-0.000465908
-0.000466099
-0.000466289
-0.000466478
-0.000466666
-0.000466853
-0.000467039
-0.000467223
-0.000467407
-0.000467589
-0.00046777
-0.00046795
-0.000468129
-0.000468307
-0.000468483
-0.000468658
-0.000468832
-0.000469005
-0.000469176
-0.000469347
-0.000469516
-0.000469683
-0.00046985
-0.000470015
-0.000470179
-0.000470342
-0.000470503
-0.000470663
-0.000470822
-0.000470979
-0.000471135
-0.00047129
-0.000471443
-0.000471595
-0.000471746
-0.000471895
-0.000472043
-0.000472189
-0.000472334
-0.000472477
-0.000472619
-0.00047276
-0.000472899
-0.000473036
-0.000473172
-0.000473307
-0.00047344
-0.000473571
-0.000473701
-0.000473829
-0.000473956
-0.000474081
-0.000474205
-0.000474327
-0.000474447
-0.000474565
-0.000474682
-0.000474798
-0.000474911
-0.000475023
-0.000475133
-0.000475242
-0.000475349
-0.000475454
-0.000475557
-0.000475658
-0.000475758
-0.000475856
-0.000475952
-0.000476047
-0.000476139
-0.00047623
-0.000476319
-0.000476406
-0.000476491
-0.000476574
-0.000476655
-0.000476735
-0.000476812
-0.000476888
-0.000476962
-0.000477033
-0.000477103
-0.000477171
-0.000477237
-0.000477301
-0.000477363
-0.000477423
-0.000477481
-0.000477537
-0.000477591
-0.000477643
-0.000477693
-0.000477741
-0.000477786
-0.00047783
-0.000477872
-0.000477912
-0.000477949
-0.000477985
-0.000478019
-0.00047805
-0.000478079
-0.000478107
-0.000478132
-0.000478155
-0.000478176
-0.000478195
-0.000478212
-0.000478227
-0.000478239
-0.00047825
-0.000478258
-0.000478265
-0.000478269
-0.000478271
-0.000478271
-0.000478269
-0.000478265
-0.000478258
-0.00047825
-0.000478239
-0.000478227
-0.000478212
-0.000478195
-0.000478176
-0.000478155
-0.000478132
-0.000478107
-0.000478079
-0.00047805
-0.000478019
-0.000477985
-0.000477949
-0.000477912
-0.000477872
-0.00047783
-0.000477786
-0.000477741
-0.000477693
-0.000477643
-0.000477591
-0.000477537
-0.000477481
-0.000477423
-0.000477363
-0.000477301
-0.000477237
-0.000477171
-0.000477103
-0.000477033
-0.000476962
-0.000476888
-0.000476812
-0.000476735
-0.000476655
-0.000476574
-0.000476491
-0.000476406
-0.000476319
-0.00047623
-0.000476139
-0.000476047
-0.000475952
-0.000475856
-0.000475758
-0.000475659
-0.000475557
-0.000475454
-0.000475349
-0.000475242
-0.000475133
-0.000475023
-0.000474911
-0.000474798
-0.000474682
-0.000474565
-0.000474447
-0.000474327
-0.000474205
-0.000474081
-0.000473956
-0.000473829
-0.000473701
-0.000473571
-0.00047344
-0.000473307
-0.000473172
-0.000473036
-0.000472899
-0.00047276
-0.000472619
-0.000472478
-0.000472334
-0.000472189
-0.000472043
-0.000471895
-0.000471746
-0.000471596
-0.000471444
-0.00047129
-0.000471136
-0.00047098
-0.000470822
-0.000470663
-0.000470503
-0.000470342
-0.000470179
-0.000470015
-0.00046985
-0.000469684
-0.000469516
-0.000469347
-0.000469176
-0.000469005
-0.000468832
-0.000468658
-0.000468483
-0.000468307
-0.000468129
-0.00046795
-0.00046777
-0.000467589
-0.000467407
-0.000467224
-0.000467039
-0.000466853
-0.000466666
-0.000466478
-0.000466289
-0.000466099
-0.000465908
-0.000465716
-0.000465522
-0.000465328
-0.000465132
-0.000464935
-0.000464738
-0.000464539
-0.000464339
-0.000464138
-0.000463936
-0.000463733
-0.000463529
-0.000463324
-0.000463118
-0.000462911
-0.000462703
-0.000462494
-0.000462283
-0.000462072
-0.00046186
-0.000461647
-0.000461433
-0.000461218
-0.000461002
-0.000460785
-0.000460567
-0.000460347
-0.000460126
-0.000459901
-0.000459671
-0.000459436
-0.000459196
-0.000458953
-0.000458705
-0.000458454
-0.000458201
-0.000457946
-0.000457689
-0.000457431
-0.000457172
-0.000456912
-0.000456652
-0.000456391
-0.000456129
-0.000455867
-0.000455605
-0.000455342
-0.000455079
-0.000454816
-0.000454552
-0.000454287
-0.000454022
-0.000453756
-0.000453489
-0.000453222
-0.000452954
-0.000452686
-0.000452417
-0.000452147
-0.000451876
-0.000451605
-0.000451333
-0.00045106
-0.000450787
-0.000450513
-0.000450238
-0.000449962
-0.000449686
-0.000449409
-0.000449132
-0.000448854
-0.000448575
-0.000448295
-0.000448015
-0.000447734
-0.000447453
-0.00044717
-0.000446888
-0.000446604
-0.00044632
-0.000446035
-0.000445749
-0.000445463
-0.000445176
-0.000444889
-0.000444601
-0.000444312
-0.000444022
-0.000443732
-0.000443441
-0.00044315
-0.000442858
-0.000442565
-0.000442272
-0.000441978
-0.000441683
-0.000441387
-0.000441091
-0.000440795
-0.000440497
-0.000440199
-0.000439901
-0.000439601
-0.000439301
-0.000439001
-0.000438699
-0.000438398
-0.000438095
-0.000437792
-0.000437488
-0.000437183
-0.000436878
-0.000436572
-0.000436265
-0.000435958
-0.00043565
-0.000435342
-0.000435032
-0.000434722
-0.000434412
-0.0004341
-0.000433788
-0.000433476
-0.000433162
-0.000432848
-0.000432534
-0.000432218
-0.000431902
-0.000431585
-0.000431268
-0.00043095
-0.000430631
-0.000430311
-0.000429991
-0.00042967
-0.000429348
-0.000429026
-0.000428703
-0.000428379
-0.000428054
-0.000427729
-0.000427403
-0.000427076
-0.000426748
-0.00042642
-0.000426091
-0.000425761
-0.00042543
-0.000425099
-0.000424767
-0.000424434
-0.0004241
-0.000423766
-0.000423431
-0.000423095
-0.000422758
-0.00042242
-0.000422082
-0.000421743
-0.000421403
-0.000421062
-0.00042072
-0.000420377
-0.000420034
-0.00041969
-0.000419345
-0.000418999
-0.000418652
-0.000418304
-0.000417956
-0.000417606
-0.000417256
-0.000416904
-0.000416552
-0.000416199
-0.000415845
-0.00041549
-0.000415134
-0.000414777
-0.000414419
-0.000414061
-0.000413701
-0.00041334
-0.000412978
-0.000412616
-0.000412252
-0.000411887
-0.000411522
-0.000411155
-0.000410787
-0.000410419
-0.000410049
-0.000409678
-0.000409307
-0.000408934
-0.000408561
-0.000408187
-0.000407811
-0.000407435
-0.000407058
-0.00040668
-0.000406302
-0.000405923
-0.000405543
-0.000405162
-0.00040478
-0.000404398
-0.000404015
-0.000403631
-0.000403245
-0.000402857
-0.000402468
-0.000402078
-0.000401685
-0.000401291
-0.000400895
-0.000400497
-0.000400097
-0.000399695
-0.000399292
-0.000398887
-0.000398479
-0.00039807
-0.000397659
-0.000397245
-0.00039683
-0.000396412
-0.000395993
-0.000395571
-0.000395147
-0.00039472
-0.000394292
-0.000393861
-0.000393427
-0.000392992
-0.000392554
-0.000392113
-0.00039167
-0.000391224
-0.000390776
-0.000390325
-0.000389871
-0.000389415
-0.000388956
-0.000388494
-0.000388029
-0.000387561
-0.00038709
-0.000386616
-0.000386139
-0.000385659
-0.000385176
-0.000384689
-0.000384199
-0.000383706
-0.000383209
-0.000382708
-0.000382205
-0.000381697
-0.000381186
-0.000380671
-0.000380152
-0.000379629
-0.000379102
-0.000378571
-0.000378036
-0.000377496
-0.000376952
-0.000376404
-0.000375851
-0.000375294
-0.000374732
-0.000374165
-0.000373593
-0.000373016
-0.000372434
-0.000371846
-0.000371254
-0.000370656
-0.000370052
-0.000369442
-0.000368827
-0.000368206
-0.000367578
-0.000366945
-0.000366304
-0.000365658
-0.000365004
-0.000364344
-0.000363677
-0.000363002
-0.00036232
-0.000361631
-0.000360933
-0.000360228
-0.000359515
-0.000358793
-0.000358062
-0.000357323
-0.000356575
-0.000355817
-0.000355049
-0.000354272
-0.000353485
-0.000352687
-0.000351879
-0.000351059
-0.000350228
-0.000349386
-0.000348531
-0.000347664
-0.000346784
-0.000345891
-0.000344984
-0.000344064
-0.000343128
-0.000342178
-0.000341212
-0.000340229
-0.00033923
-0.000338214
-0.00033718
-0.000336128
-0.000335056
-0.000333964
-0.000332851
-0.000331717
-0.00033056
-0.00032938
-0.000328176
-0.000326946
-0.00032569
-0.000324406
-0.000323093
-0.000321749
-0.000320375
-0.000318966
-0.000317523
-0.000316044
-0.000314525
-0.000312967
-0.000311365
-0.000309718
-0.000308024
-0.000306278
-0.00030448
-0.000302624
-0.000300708
-0.000298727
-0.000296677
-0.000294553
-0.000292351
-0.000290063
-0.000287683
-0.000285205
-0.000282619
-0.000279916
-0.000277087
-0.000274117
-0.000270993
-0.000267693
-0.000264199
-0.000260487
-0.000256533
-0.000252306
-0.00024777
-0.000242883
-0.000237594
-0.000231843
-0.000225557
-0.000218646
-0.000211002
-0.000202494
-0.000192964
-0.000182217
-0.000169987
-0.000155928
-0.000139722
-0.000121254
-0.000100793
-7.90088e-05
-5.66122e-05
-3.40161e-05
-1.13539e-05
)
;
    }
    bot_wall
    {
        type            calculated;
        value           uniform 0;
    }
    outlet
    {
        type            cyclic;
        value           nonuniform List<scalar> 
1000
(
1.13539e-05
3.40161e-05
5.66122e-05
7.90088e-05
0.000100793
0.000121254
0.000139723
0.000155928
0.000169987
0.000182217
0.000192964
0.000202494
0.000211002
0.000218646
0.000225557
0.000231844
0.000237594
0.000242883
0.00024777
0.000252306
0.000256533
0.000260488
0.000264199
0.000267693
0.000270993
0.000274118
0.000277087
0.000279916
0.000282619
0.000285205
0.000287683
0.000290063
0.000292351
0.000294554
0.000296677
0.000298727
0.000300708
0.000302624
0.00030448
0.000306279
0.000308024
0.000309718
0.000311365
0.000312967
0.000314526
0.000316044
0.000317524
0.000318967
0.000320375
0.00032175
0.000323093
0.000324406
0.00032569
0.000326946
0.000328176
0.000329381
0.000330561
0.000331717
0.000332851
0.000333964
0.000335056
0.000336128
0.00033718
0.000338214
0.000339231
0.00034023
0.000341212
0.000342178
0.000343128
0.000344064
0.000344985
0.000345891
0.000346785
0.000347664
0.000348531
0.000349386
0.000350229
0.00035106
0.000351879
0.000352687
0.000353485
0.000354273
0.00035505
0.000355817
0.000356575
0.000357323
0.000358062
0.000358793
0.000359515
0.000360228
0.000360934
0.000361631
0.00036232
0.000363002
0.000363677
0.000364344
0.000365005
0.000365658
0.000366305
0.000366945
0.000367578
0.000368206
0.000368827
0.000369442
0.000370052
0.000370656
0.000371254
0.000371847
0.000372434
0.000373016
0.000373593
0.000374165
0.000374732
0.000375294
0.000375851
0.000376404
0.000376952
0.000377496
0.000378036
0.000378571
0.000379102
0.000379629
0.000380152
0.000380671
0.000381186
0.000381697
0.000382205
0.000382709
0.000383209
0.000383706
0.000384199
0.000384689
0.000385176
0.000385659
0.000386139
0.000386616
0.00038709
0.000387561
0.000388029
0.000388494
0.000388956
0.000389415
0.000389871
0.000390325
0.000390776
0.000391224
0.00039167
0.000392113
0.000392554
0.000392992
0.000393428
0.000393861
0.000394292
0.00039472
0.000395147
0.000395571
0.000395993
0.000396412
0.00039683
0.000397245
0.000397659
0.00039807
0.000398479
0.000398887
0.000399292
0.000399696
0.000400097
0.000400497
0.000400895
0.000401291
0.000401685
0.000402078
0.000402468
0.000402858
0.000403245
0.000403631
0.000404015
0.000404398
0.000404781
0.000405162
0.000405543
0.000405923
0.000406302
0.000406681
0.000407058
0.000407435
0.000407811
0.000408187
0.000408561
0.000408934
0.000409307
0.000409679
0.000410049
0.000410419
0.000410787
0.000411155
0.000411522
0.000411887
0.000412252
0.000412616
0.000412978
0.00041334
0.000413701
0.000414061
0.000414419
0.000414777
0.000415134
0.00041549
0.000415845
0.000416199
0.000416552
0.000416904
0.000417256
0.000417606
0.000417956
0.000418304
0.000418652
0.000418999
0.000419345
0.00041969
0.000420034
0.000420378
0.00042072
0.000421062
0.000421403
0.000421743
0.000422082
0.00042242
0.000422758
0.000423095
0.000423431
0.000423766
0.0004241
0.000424434
0.000424767
0.000425099
0.00042543
0.000425761
0.000426091