/*--------------------------------*- C++ -*----------------------------------*\
| =========                 |                                                 |
| \\      /  F ield         | OpenFOAM: The Open Source CFD Toolbox           |
|  \\    /   O peration     | Version:  2406                                  |
|   \\  /    A nd           | Website:  www.openfoam.com                      |
|    \\/     M anipulation  |                                                 |
\*---------------------------------------------------------------------------*/
FoamFile
{
    version     2.0;
    format      ascii;
    arch        "LSB;label=32;scalar=64";
    class       volVectorField;
    location    "22.905";
    object      U;
}
// * * * * * * * * * * * * * * * * * * * * * * * * * * * * * * * * * * * * * //

dimensions      [0 1 -1 0 0 0 0];

internalField   nonuniform List<vector> 
1000
(
(0.113539 -4.37495e-18 0)
(0.340161 -7.11772e-18 0)
(0.566122 -7.76467e-18 0)
(0.790088 -7.13645e-18 0)
(1.00793 -6.99578e-18 0)
(1.21254 -6.98882e-18 0)
(1.39723 -7.06683e-18 0)
(1.55928 -7.10666e-18 0)
(1.69987 -6.87001e-18 0)
(1.82217 -6.61721e-18 0)
(1.92964 -6.69664e-18 0)
(2.02494 -6.83176e-18 0)
(2.11002 -7.05597e-18 0)
(2.18646 -7.30918e-18 0)
(2.25557 -7.47738e-18 0)
(2.31844 -7.61798e-18 0)
(2.37594 -7.64771e-18 0)
(2.42883 -7.64934e-18 0)
(2.4777 -7.68548e-18 0)
(2.52306 -7.73903e-18 0)
(2.56533 -7.77068e-18 0)
(2.60488 -7.7545e-18 0)
(2.64199 -7.72124e-18 0)
(2.67693 -7.69122e-18 0)
(2.70993 -7.66396e-18 0)
(2.74118 -7.63903e-18 0)
(2.77087 -7.59335e-18 0)
(2.79916 -7.52866e-18 0)
(2.82619 -7.46723e-18 0)
(2.85205 -7.40872e-18 0)
(2.87683 -7.3528e-18 0)
(2.90063 -7.29921e-18 0)
(2.92351 -7.24772e-18 0)
(2.94554 -7.19814e-18 0)
(2.96677 -7.15029e-18 0)
(2.98727 -7.10404e-18 0)
(3.00708 -7.05926e-18 0)
(3.02624 -7.01584e-18 0)
(3.0448 -6.97367e-18 0)
(3.06279 -6.93268e-18 0)
(3.08024 -6.89278e-18 0)
(3.09718 -6.8539e-18 0)
(3.11365 -6.81599e-18 0)
(3.12967 -6.77897e-18 0)
(3.14526 -6.7428e-18 0)
(3.16044 -6.70742e-18 0)
(3.17524 -6.67278e-18 0)
(3.18967 -6.63882e-18 0)
(3.20375 -6.60552e-18 0)
(3.2175 -6.5728e-18 0)
(3.23093 -6.54065e-18 0)
(3.24406 -6.509e-18 0)
(3.2569 -6.47781e-18 0)
(3.26946 -6.44705e-18 0)
(3.28176 -6.41666e-18 0)
(3.29381 -6.38662e-18 0)
(3.30561 -6.35687e-18 0)
(3.31717 -6.32737e-18 0)
(3.32851 -6.29808e-18 0)
(3.33964 -6.26896e-18 0)
(3.35056 -6.23998e-18 0)
(3.36128 -6.21108e-18 0)
(3.3718 -6.18222e-18 0)
(3.38214 -6.15337e-18 0)
(3.39231 -6.12449e-18 0)
(3.4023 -6.09552e-18 0)
(3.41212 -6.06643e-18 0)
(3.42178 -6.03719e-18 0)
(3.43128 -6.00774e-18 0)
(3.44064 -5.97804e-18 0)
(3.44985 -5.94806e-18 0)
(3.45891 -5.91775e-18 0)
(3.46785 -5.88708e-18 0)
(3.47664 -5.85598e-18 0)
(3.48531 -5.82444e-18 0)
(3.49386 -5.7924e-18 0)
(3.50229 -5.75981e-18 0)
(3.5106 -5.72665e-18 0)
(3.51879 -5.69286e-18 0)
(3.52687 -5.65841e-18 0)
(3.53485 -5.62324e-18 0)
(3.54273 -5.58732e-18 0)
(3.5505 -5.55061e-18 0)
(3.55817 -5.51305e-18 0)
(3.56575 -5.47461e-18 0)
(3.57323 -5.43524e-18 0)
(3.58062 -5.3949e-18 0)
(3.58793 -5.35354e-18 0)
(3.59515 -5.31112e-18 0)
(3.60228 -5.2676e-18 0)
(3.60934 -5.22293e-18 0)
(3.61631 -5.17706e-18 0)
(3.6232 -5.12995e-18 0)
(3.63002 -5.08156e-18 0)
(3.63677 -5.03185e-18 0)
(3.64344 -4.98076e-18 0)
(3.65005 -4.92826e-18 0)
(3.65658 -4.87431e-18 0)
(3.66305 -4.81887e-18 0)
(3.66945 -4.7619e-18 0)
(3.67578 -4.70407e-18 0)
(3.68206 -4.64534e-18 0)
(3.68827 -4.58568e-18 0)
(3.69442 -4.52505e-18 0)
(3.70052 -4.46345e-18 0)
(3.70656 -4.40085e-18 0)
(3.71254 -4.33726e-18 0)
(3.71847 -4.27271e-18 0)
(3.72434 -4.20722e-18 0)
(3.73016 -4.14085e-18 0)
(3.73593 -4.07369e-18 0)
(3.74165 -4.00584e-18 0)
(3.74732 -3.93745e-18 0)
(3.75294 -3.86871e-18 0)
(3.75851 -3.79984e-18 0)
(3.76404 -3.73049e-18 0)
(3.76952 -3.66096e-18 0)
(3.77496 -3.59151e-18 0)
(3.78036 -3.52242e-18 0)
(3.78571 -3.45402e-18 0)
(3.79102 -3.38666e-18 0)
(3.79629 -3.32078e-18 0)
(3.80152 -3.2562e-18 0)
(3.80671 -3.19338e-18 0)
(3.81186 -3.13276e-18 0)
(3.81697 -3.07484e-18 0)
(3.82205 -3.02012e-18 0)
(3.82709 -2.96853e-18 0)
(3.83209 -2.92061e-18 0)
(3.83706 -2.87692e-18 0)
(3.84199 -2.83807e-18 0)
(3.84689 -2.80475e-18 0)
(3.85176 -2.77786e-18 0)
(3.85659 -2.75852e-18 0)
(3.86139 -2.74766e-18 0)
(3.86616 -2.74719e-18 0)
(3.8709 -2.75959e-18 0)
(3.87561 -2.78696e-18 0)
(3.88029 -2.83664e-18 0)
(3.88494 -2.85373e-18 0)
(3.88956 -2.87305e-18 0)
(3.89415 -2.89332e-18 0)
(3.89871 -2.91325e-18 0)
(3.90325 -2.96601e-18 0)
(3.90776 -2.997e-18 0)
(3.91224 -3.01357e-18 0)
(3.9167 -3.01795e-18 0)
(3.92113 -3.01269e-18 0)
(3.92554 -2.9992e-18 0)
(3.92992 -2.97896e-18 0)
(3.93428 -2.95309e-18 0)
(3.93861 -2.92244e-18 0)
(3.94292 -2.88771e-18 0)
(3.9472 -2.8495e-18 0)
(3.95147 -2.80832e-18 0)
(3.95571 -2.76472e-18 0)
(3.95993 -2.71867e-18 0)
(3.96412 -2.67063e-18 0)
(3.9683 -2.62102e-18 0)
(3.97245 -2.57027e-18 0)
(3.97659 -2.51874e-18 0)
(3.9807 -2.46633e-18 0)
(3.98479 -2.41342e-18 0)
(3.98887 -2.36032e-18 0)
(3.99292 -2.30732e-18 0)
(3.99696 -2.25469e-18 0)
(4.00097 -2.20264e-18 0)
(4.00497 -2.15136e-18 0)
(4.00895 -2.10106e-18 0)
(4.01291 -2.04551e-18 0)
(4.01685 -2.07816e-18 0)
(4.02078 -2.26854e-18 0)
(4.02468 -2.45925e-18 0)
(4.02858 -2.49345e-18 0)
(4.03245 -2.44217e-18 0)
(4.03631 -2.39899e-18 0)
(4.04015 -2.35728e-18 0)
(4.04398 -2.31769e-18 0)
(4.04781 -2.28046e-18 0)
(4.05162 -2.24538e-18 0)
(4.05543 -2.21274e-18 0)
(4.05923 -2.1828e-18 0)
(4.06302 -2.1559e-18 0)
(4.06681 -2.13237e-18 0)
(4.07058 -2.11262e-18 0)
(4.07435 -2.09656e-18 0)
(4.07811 -2.08458e-18 0)
(4.08187 -2.07708e-18 0)
(4.08561 -2.07393e-18 0)
(4.08934 -2.07545e-18 0)
(4.09307 -2.08184e-18 0)
(4.09679 -2.09323e-18 0)
(4.10049 -2.10916e-18 0)
(4.10419 -2.12939e-18 0)
(4.10787 -2.15342e-18 0)
(4.11155 -2.18035e-18 0)
(4.11522 -2.20885e-18 0)
(4.11887 -2.23753e-18 0)
(4.12252 -2.26483e-18 0)
(4.12616 -2.28917e-18 0)
(4.12978 -2.30962e-18 0)
(4.1334 -2.3184e-18 0)
(4.13701 -2.39102e-18 0)
(4.14061 -2.36689e-18 0)
(4.14419 -2.3432e-18 0)
(4.14777 -2.41725e-18 0)
(4.15134 -2.42933e-18 0)
(4.1549 -2.45447e-18 0)
(4.15845 -2.48491e-18 0)
(4.16199 -2.5197e-18 0)
(4.16552 -2.55727e-18 0)
(4.16904 -2.59608e-18 0)
(4.17256 -2.63475e-18 0)
(4.17606 -2.67197e-18 0)
(4.17956 -2.70688e-18 0)
(4.18304 -2.73896e-18 0)
(4.18652 -2.76803e-18 0)
(4.18999 -2.79362e-18 0)
(4.19345 -2.81589e-18 0)
(4.1969 -2.83512e-18 0)
(4.20034 -2.85117e-18 0)
(4.20378 -2.86442e-18 0)
(4.2072 -2.87525e-18 0)
(4.21062 -2.88404e-18 0)
(4.21403 -2.89074e-18 0)
(4.21743 -2.89571e-18 0)
(4.22082 -2.89931e-18 0)
(4.2242 -2.90183e-18 0)
(4.22758 -2.90358e-18 0)
(4.23095 -2.9044e-18 0)
(4.23431 -2.90454e-18 0)
(4.23766 -2.90422e-18 0)
(4.241 -2.90361e-18 0)
(4.24434 -2.90286e-18 0)
(4.24767 -2.90207e-18 0)
(4.25099 -2.90135e-18 0)
(4.2543 -2.90076e-18 0)
(4.25761 -2.90037e-18 0)
(4.26091 -2.9002e-18 0)
(4.2642 -2.90029e-18 0)
(4.26748 -2.90064e-18 0)
(4.27076 -2.90124e-18 0)
(4.27403 -2.9021e-18 0)
(4.27729 -2.90319e-18 0)
(4.28054 -2.90449e-18 0)
(4.28379 -2.90598e-18 0)
(4.28703 -2.90762e-18 0)
(4.29026 -2.90938e-18 0)
(4.29348 -2.91123e-18 0)
(4.2967 -2.91315e-18 0)
(4.29991 -2.91509e-18 0)
(4.30311 -2.91704e-18 0)
(4.30631 -2.91896e-18 0)
(4.3095 -2.92082e-18 0)
(4.31268 -2.92261e-18 0)
(4.31585 -2.92429e-18 0)
(4.31902 -2.92586e-18 0)
(4.32218 -2.92728e-18 0)
(4.32534 -2.92855e-18 0)
(4.32848 -2.92964e-18 0)
(4.33162 -2.93055e-18 0)
(4.33476 -2.93125e-18 0)
(4.33788 -2.93175e-18 0)
(4.341 -2.93202e-18 0)
(4.34412 -2.93206e-18 0)
(4.34722 -2.93187e-18 0)
(4.35032 -2.93143e-18 0)
(4.35342 -2.93074e-18 0)
(4.3565 -2.9298e-18 0)
(4.35958 -2.9286e-18 0)
(4.36265 -2.92714e-18 0)
(4.36572 -2.92541e-18 0)
(4.36878 -2.92342e-18 0)
(4.37183 -2.92116e-18 0)
(4.37488 -2.91863e-18 0)
(4.37792 -2.91583e-18 0)
(4.38095 -2.91277e-18 0)
(4.38397 -2.90943e-18 0)
(4.38699 -2.90583e-18 0)
(4.39001 -2.90197e-18 0)
(4.39301 -2.89784e-18 0)
(4.39601 -2.89345e-18 0)
(4.39901 -2.88879e-18 0)
(4.40199 -2.88389e-18 0)
(4.40497 -2.87872e-18 0)
(4.40795 -2.87331e-18 0)
(4.41091 -2.86765e-18 0)
(4.41387 -2.86175e-18 0)
(4.41683 -2.85561e-18 0)
(4.41977 -2.84923e-18 0)
(4.42272 -2.84262e-18 0)
(4.42565 -2.83579e-18 0)
(4.42858 -2.82873e-18 0)
(4.4315 -2.82146e-18 0)
(4.43441 -2.81397e-18 0)
(4.43732 -2.80627e-18 0)
(4.44022 -2.79837e-18 0)
(4.44312 -2.79027e-18 0)
(4.44601 -2.78198e-18 0)
(4.44889 -2.7735e-18 0)
(4.45176 -2.76484e-18 0)
(4.45463 -2.75599e-18 0)
(4.45749 -2.74698e-18 0)
(4.46035 -2.73779e-18 0)
(4.4632 -2.72845e-18 0)
(4.46604 -2.71894e-18 0)
(4.46887 -2.70928e-18 0)
(4.4717 -2.69947e-18 0)
(4.47453 -2.68951e-18 0)
(4.47734 -2.67942e-18 0)
(4.48015 -2.66919e-18 0)
(4.48295 -2.65883e-18 0)
(4.48575 -2.64835e-18 0)
(4.48854 -2.63774e-18 0)
(4.49132 -2.62702e-18 0)
(4.49409 -2.61618e-18 0)
(4.49686 -2.60524e-18 0)
(4.49962 -2.59419e-18 0)
(4.50238 -2.58304e-18 0)
(4.50513 -2.57179e-18 0)
(4.50787 -2.56045e-18 0)
(4.5106 -2.54902e-18 0)
(4.51333 -2.53751e-18 0)
(4.51605 -2.52591e-18 0)
(4.51876 -2.51423e-18 0)
(4.52147 -2.50248e-18 0)
(4.52416 -2.49065e-18 0)
(4.52686 -2.47875e-18 0)
(4.52954 -2.46679e-18 0)
(4.53222 -2.45476e-18 0)
(4.53489 -2.44266e-18 0)
(4.53756 -2.43051e-18 0)
(4.54021 -2.41829e-18 0)
(4.54287 -2.40601e-18 0)
(4.54551 -2.39368e-18 0)
(4.54816 -2.38129e-18 0)
(4.55079 -2.36884e-18 0)
(4.55342 -2.35633e-18 0)
(4.55605 -2.34376e-18 0)
(4.55867 -2.33114e-18 0)
(4.56129 -2.31846e-18 0)
(4.5639 -2.30573e-18 0)
(4.56651 -2.29295e-18 0)
(4.56912 -2.28012e-18 0)
(4.57172 -2.26725e-18 0)
(4.57431 -2.25435e-18 0)
(4.57689 -2.24143e-18 0)
(4.57946 -2.22851e-18 0)
(4.58201 -2.2156e-18 0)
(4.58454 -2.20273e-18 0)
(4.58705 -2.18993e-18 0)
(4.58952 -2.17722e-18 0)
(4.59196 -2.16464e-18 0)
(4.59436 -2.15222e-18 0)
(4.59671 -2.13999e-18 0)
(4.59901 -2.12796e-18 0)
(4.60126 -2.11613e-18 0)
(4.60347 -2.10445e-18 0)
(4.60566 -2.09283e-18 0)
(4.60785 -2.08122e-18 0)
(4.61002 -2.0696e-18 0)
(4.61218 -2.05799e-18 0)
(4.61433 -2.04638e-18 0)
(4.61647 -2.03478e-18 0)
(4.6186 -2.02318e-18 0)
(4.62072 -2.01158e-18 0)
(4.62283 -1.99999e-18 0)
(4.62493 -1.98841e-18 0)
(4.62703 -1.97683e-18 0)
(4.62911 -1.96526e-18 0)
(4.63118 -1.9537e-18 0)
(4.63324 -1.94215e-18 0)
(4.63529 -1.9306e-18 0)
(4.63733 -1.91907e-18 0)
(4.63936 -1.90754e-18 0)
(4.64138 -1.89603e-18 0)
(4.64339 -1.88453e-18 0)
(4.64539 -1.87304e-18 0)
(4.64737 -1.86156e-18 0)
(4.64935 -1.8501e-18 0)
(4.65132 -1.83865e-18 0)
(4.65327 -1.82721e-18 0)
(4.65522 -1.81579e-18 0)
(4.65715 -1.80438e-18 0)
(4.65908 -1.79299e-18 0)
(4.66099 -1.78162e-18 0)
(4.66289 -1.77026e-18 0)
(4.66478 -1.75892e-18 0)
(4.66666 -1.74759e-18 0)
(4.66853 -1.73629e-18 0)
(4.67039 -1.725e-18 0)
(4.67223 -1.71373e-18 0)
(4.67407 -1.70248e-18 0)
(4.67589 -1.69125e-18 0)
(4.6777 -1.68005e-18 0)
(4.6795 -1.66886e-18 0)
(4.68129 -1.6577e-18 0)
(4.68307 -1.64655e-18 0)
(4.68483 -1.63543e-18 0)
(4.68658 -1.62433e-18 0)
(4.68832 -1.61326e-18 0)
(4.69005 -1.60221e-18 0)
(4.69176 -1.59118e-18 0)
(4.69347 -1.58018e-18 0)
(4.69516 -1.5692e-18 0)
(4.69683 -1.55825e-18 0)
(4.6985 -1.54733e-18 0)
(4.70015 -1.53643e-18 0)
(4.70179 -1.52556e-18 0)
(4.70342 -1.51472e-18 0)
(4.70503 -1.5039e-18 0)
(4.70663 -1.49312e-18 0)
(4.70822 -1.48236e-18 0)
(4.70979 -1.47163e-18 0)
(4.71135 -1.46093e-18 0)
(4.7129 -1.45027e-18 0)
(4.71443 -1.43963e-18 0)
(4.71595 -1.42902e-18 0)
(4.71746 -1.41845e-18 0)
(4.71895 -1.40791e-18 0)
(4.72043 -1.3974e-18 0)
(4.72189 -1.38693e-18 0)
(4.72334 -1.37648e-18 0)
(4.72477 -1.36607e-18 0)
(4.72619 -1.3557e-18 0)
(4.7276 -1.34536e-18 0)
(4.72899 -1.33506e-18 0)
(4.73036 -1.32479e-18 0)
(4.73172 -1.31456e-18 0)
(4.73307 -1.30436e-18 0)
(4.7344 -1.2942e-18 0)
(4.73571 -1.28408e-18 0)
(4.73701 -1.274e-18 0)
(4.73829 -1.26396e-18 0)
(4.73956 -1.25395e-18 0)
(4.74081 -1.24398e-18 0)
(4.74205 -1.23406e-18 0)
(4.74327 -1.22417e-18 0)
(4.74447 -1.21432e-18 0)
(4.74565 -1.20452e-18 0)
(4.74682 -1.19475e-18 0)
(4.74798 -1.18503e-18 0)
(4.74911 -1.17535e-18 0)
(4.75023 -1.16571e-18 0)
(4.75133 -1.15611e-18 0)
(4.75242 -1.14656e-18 0)
(4.75349 -1.13705e-18 0)
(4.75454 -1.12759e-18 0)
(4.75557 -1.11817e-18 0)
(4.75658 -1.10879e-18 0)
(4.75758 -1.09946e-18 0)
(4.75856 -1.09018e-18 0)
(4.75952 -1.08094e-18 0)
(4.76047 -1.07174e-18 0)
(4.76139 -1.0626e-18 0)
(4.7623 -1.0535e-18 0)
(4.76319 -1.04445e-18 0)
(4.76406 -1.03545e-18 0)
(4.76491 -1.02649e-18 0)
(4.76574 -1.01758e-18 0)
(4.76655 -1.00873e-18 0)
(4.76735 -9.99916e-19 0)
(4.76812 -9.91156e-19 0)
(4.76888 -9.82444e-19 0)
(4.76962 -9.73782e-19 0)
(4.77033 -9.6517e-19 0)
(4.77103 -9.56607e-19 0)
(4.77171 -9.48094e-19 0)
(4.77237 -9.39632e-19 0)
(4.77301 -9.31219e-19 0)
(4.77363 -9.22858e-19 0)
(4.77423 -9.14547e-19 0)
(4.77481 -9.06287e-19 0)
(4.77537 -8.98077e-19 0)
(4.77591 -8.89919e-19 0)
(4.77643 -8.81813e-19 0)
(4.77693 -8.73757e-19 0)
(4.77741 -8.65754e-19 0)
(4.77786 -8.57802e-19 0)
(4.7783 -8.49902e-19 0)
(4.77872 -8.42053e-19 0)
(4.77912 -8.34257e-19 0)
(4.77949 -8.26513e-19 0)
(4.77985 -8.18822e-19 0)
(4.78019 -8.11182e-19 0)
(4.7805 -8.03595e-19 0)
(4.78079 -7.96061e-19 0)
(4.78107 -7.88579e-19 0)
(4.78132 -7.81151e-19 0)
(4.78155 -7.73774e-19 0)
(4.78176 -7.66451e-19 0)
(4.78195 -7.59181e-19 0)
(4.78212 -7.51964e-19 0)
(4.78227 -7.4478e-19 0)
(4.78239 -7.37631e-19 0)
(4.7825 -7.30515e-19 0)
(4.78258 -7.23433e-19 0)
(4.78265 -7.16394e-19 0)
(4.78269 -7.09399e-19 0)
(4.78271 -7.02443e-19 0)
(4.78271 -6.95527e-19 0)
(4.78269 -6.88652e-19 0)
(4.78265 -6.81815e-19 0)
(4.78258 -6.75021e-19 0)
(4.7825 -6.68272e-19 0)
(4.78239 -6.61557e-19 0)
(4.78227 -6.54875e-19 0)
(4.78212 -6.48228e-19 0)
(4.78195 -6.41615e-19 0)
(4.78176 -6.35056e-19 0)
(4.78155 -6.28549e-19 0)
(4.78132 -6.22097e-19 0)
(4.78107 -6.15697e-19 0)
(4.78079 -6.09351e-19 0)
(4.7805 -6.03058e-19 0)
(4.78019 -5.96818e-19 0)
(4.77985 -5.90631e-19 0)
(4.77949 -5.84497e-19 0)
(4.77912 -5.78416e-19 0)
(4.77872 -5.72387e-19 0)
(4.7783 -5.66412e-19 0)
(4.77786 -5.60488e-19 0)
(4.77741 -5.54618e-19 0)
(4.77693 -5.48799e-19 0)
(4.77643 -5.43033e-19 0)
(4.77591 -5.37318e-19 0)
(4.77537 -5.31656e-19 0)
(4.77481 -5.26045e-19 0)
(4.77423 -5.20486e-19 0)
(4.77363 -5.14978e-19 0)
(4.77301 -5.09521e-19 0)
(4.77237 -5.04115e-19 0)
(4.77171 -4.9876e-19 0)
(4.77103 -4.93455e-19 0)
(4.77033 -4.88201e-19 0)
(4.76962 -4.82996e-19 0)
(4.76888 -4.77842e-19 0)
(4.76812 -4.72738e-19 0)
(4.76735 -4.67682e-19 0)
(4.76655 -4.62676e-19 0)
(4.76574 -4.5772e-19 0)
(4.76491 -4.52811e-19 0)
(4.76406 -4.47951e-19 0)
(4.76319 -4.4314e-19 0)
(4.7623 -4.38376e-19 0)
(4.76139 -4.3366e-19 0)
(4.76047 -4.28992e-19 0)
(4.75952 -4.24371e-19 0)
(4.75856 -4.19796e-19 0)
(4.75758 -4.15269e-19 0)
(4.75659 -4.10788e-19 0)
(4.75557 -4.06354e-19 0)
(4.75454 -4.01965e-19 0)
(4.75349 -3.97622e-19 0)
(4.75242 -3.93325e-19 0)
(4.75133 -3.89073e-19 0)
(4.75023 -3.84866e-19 0)
(4.74911 -3.80704e-19 0)
(4.74798 -3.76586e-19 0)
(4.74682 -3.72512e-19 0)
(4.74565 -3.68482e-19 0)
(4.74447 -3.64496e-19 0)
(4.74327 -3.60552e-19 0)
(4.74205 -3.56652e-19 0)
(4.74081 -3.52794e-19 0)
(4.73956 -3.48978e-19 0)
(4.73829 -3.45205e-19 0)
(4.73701 -3.41473e-19 0)
(4.73571 -3.37782e-19 0)
(4.7344 -3.34132e-19 0)
(4.73307 -3.30523e-19 0)
(4.73172 -3.26954e-19 0)
(4.73036 -3.23425e-19 0)
(4.72899 -3.19936e-19 0)
(4.7276 -3.16486e-19 0)
(4.72619 -3.13075e-19 0)
(4.72478 -3.09703e-19 0)
(4.72334 -3.06369e-19 0)
(4.72189 -3.03073e-19 0)
(4.72043 -2.99815e-19 0)
(4.71895 -2.96594e-19 0)
(4.71746 -2.9341e-19 0)
(4.71596 -2.90262e-19 0)
(4.71444 -2.87151e-19 0)
(4.7129 -2.84076e-19 0)
(4.71136 -2.81036e-19 0)
(4.7098 -2.78032e-19 0)
(4.70822 -2.75062e-19 0)
(4.70663 -2.72127e-19 0)
(4.70503 -2.69227e-19 0)
(4.70342 -2.6636e-19 0)
(4.70179 -2.63527e-19 0)
(4.70015 -2.60727e-19 0)
(4.6985 -2.5796e-19 0)
(4.69684 -2.55225e-19 0)
(4.69516 -2.52523e-19 0)
(4.69347 -2.49853e-19 0)
(4.69176 -2.47214e-19 0)
(4.69005 -2.44606e-19 0)
(4.68832 -2.42029e-19 0)
(4.68658 -2.39483e-19 0)
(4.68483 -2.36967e-19 0)
(4.68307 -2.34481e-19 0)
(4.68129 -2.32025e-19 0)
(4.6795 -2.29598e-19 0)
(4.6777 -2.27199e-19 0)
(4.67589 -2.2483e-19 0)
(4.67407 -2.22488e-19 0)
(4.67224 -2.20175e-19 0)
(4.67039 -2.1789e-19 0)
(4.66853 -2.15631e-19 0)
(4.66666 -2.134e-19 0)
(4.66478 -2.11196e-19 0)
(4.66289 -2.09018e-19 0)
(4.66099 -2.06866e-19 0)
(4.65908 -2.0474e-19 0)
(4.65716 -2.0264e-19 0)
(4.65522 -2.00565e-19 0)
(4.65328 -1.98515e-19 0)
(4.65132 -1.96489e-19 0)
(4.64935 -1.94488e-19 0)
(4.64738 -1.92511e-19 0)
(4.64539 -1.90558e-19 0)
(4.64339 -1.88629e-19 0)
(4.64138 -1.86722e-19 0)
(4.63936 -1.84839e-19 0)
(4.63733 -1.82978e-19 0)
(4.63529 -1.8114e-19 0)
(4.63324 -1.79324e-19 0)
(4.63118 -1.7753e-19 0)
(4.62911 -1.75757e-19 0)
(4.62703 -1.74006e-19 0)
(4.62494 -1.72276e-19 0)
(4.62283 -1.70567e-19 0)
(4.62072 -1.68878e-19 0)
(4.6186 -1.6721e-19 0)
(4.61647 -1.65561e-19 0)
(4.61433 -1.63933e-19 0)
(4.61218 -1.62324e-19 0)
(4.61002 -1.60734e-19 0)
(4.60785 -1.59164e-19 0)
(4.60567 -1.57612e-19 0)
(4.60347 -1.56079e-19 0)
(4.60126 -1.54556e-19 0)
(4.59901 -1.5303e-19 0)
(4.59671 -1.51498e-19 0)
(4.59436 -1.49957e-19 0)
(4.59196 -1.4841e-19 0)
(4.58953 -1.46859e-19 0)
(4.58705 -1.45309e-19 0)
(4.58454 -1.43763e-19 0)
(4.58201 -1.42225e-19 0)
(4.57946 -1.40697e-19 0)
(4.57689 -1.39183e-19 0)
(4.57431 -1.37683e-19 0)
(4.57172 -1.362e-19 0)
(4.56912 -1.34735e-19 0)
(4.56652 -1.33287e-19 0)
(4.56391 -1.31857e-19 0)
(4.56129 -1.30446e-19 0)
(4.55867 -1.29053e-19 0)
(4.55605 -1.27679e-19 0)
(4.55342 -1.26322e-19 0)
(4.55079 -1.24982e-19 0)
(4.54816 -1.2366e-19 0)
(4.54552 -1.22354e-19 0)
(4.54287 -1.21064e-19 0)
(4.54022 -1.1979e-19 0)
(4.53756 -1.18532e-19 0)
(4.53489 -1.17289e-19 0)
(4.53222 -1.16061e-19 0)
(4.52954 -1.14848e-19 0)
(4.52686 -1.13648e-19 0)
(4.52417 -1.12463e-19 0)
(4.52147 -1.11292e-19 0)
(4.51876 -1.10135e-19 0)
(4.51605 -1.08992e-19 0)
(4.51333 -1.07861e-19 0)
(4.5106 -1.06745e-19 0)
(4.50787 -1.05641e-19 0)
(4.50513 -1.0455e-19 0)
(4.50238 -1.03472e-19 0)
(4.49962 -1.02406e-19 0)
(4.49686 -1.01353e-19 0)
(4.49409 -1.00312e-19 0)
(4.49132 -9.92839e-20 0)
(4.48854 -9.82675e-20 0)
(4.48575 -9.72629e-20 0)
(4.48295 -9.627e-20 0)
(4.48015 -9.52888e-20 0)
(4.47734 -9.43191e-20 0)
(4.47453 -9.33606e-20 0)
(4.4717 -9.24134e-20 0)
(4.46888 -9.14773e-20 0)
(4.46604 -9.0552e-20 0)
(4.4632 -8.96376e-20 0)
(4.46035 -8.87338e-20 0)
(4.45749 -8.78406e-20 0)
(4.45463 -8.69578e-20 0)
(4.45176 -8.60853e-20 0)
(4.44889 -8.52229e-20 0)
(4.44601 -8.43706e-20 0)
(4.44312 -8.35282e-20 0)
(4.44022 -8.26956e-20 0)
(4.43732 -8.18727e-20 0)
(4.43441 -8.10593e-20 0)
(4.4315 -8.02554e-20 0)
(4.42858 -7.94608e-20 0)
(4.42565 -7.86754e-20 0)
(4.42272 -7.78992e-20 0)
(4.41978 -7.71319e-20 0)
(4.41683 -7.63735e-20 0)
(4.41387 -7.5624e-20 0)
(4.41091 -7.48831e-20 0)
(4.40795 -7.41507e-20 0)
(4.40497 -7.34269e-20 0)
(4.40199 -7.27114e-20 0)
(4.39901 -7.20041e-20 0)
(4.39601 -7.13051e-20 0)
(4.39301 -7.06141e-20 0)
(4.39001 -6.9931e-20 0)
(4.38699 -6.92559e-20 0)
(4.38398 -6.85885e-20 0)
(4.38095 -6.79288e-20 0)
(4.37792 -6.72767e-20 0)
(4.37488 -6.66321e-20 0)
(4.37183 -6.59949e-20 0)
(4.36878 -6.53651e-20 0)
(4.36572 -6.47424e-20 0)
(4.36265 -6.4127e-20 0)
(4.35958 -6.35186e-20 0)
(4.3565 -6.29171e-20 0)
(4.35342 -6.23226e-20 0)
(4.35032 -6.17348e-20 0)
(4.34722 -6.11538e-20 0)
(4.34412 -6.05795e-20 0)
(4.341 -6.00117e-20 0)
(4.33788 -5.94504e-20 0)
(4.33476 -5.88955e-20 0)
(4.33162 -5.8347e-20 0)
(4.32848 -5.78047e-20 0)
(4.32534 -5.72686e-20 0)
(4.32218 -5.67387e-20 0)
(4.31902 -5.62147e-20 0)
(4.31585 -5.56968e-20 0)
(4.31268 -5.51847e-20 0)
(4.3095 -5.46785e-20 0)
(4.30631 -5.4178e-20 0)
(4.30311 -5.36832e-20 0)
(4.29991 -5.3194e-20 0)
(4.2967 -5.27104e-20 0)
(4.29348 -5.22323e-20 0)
(4.29026 -5.17596e-20 0)
(4.28703 -5.12922e-20 0)
(4.28379 -5.08302e-20 0)
(4.28054 -5.03734e-20 0)
(4.27729 -4.99217e-20 0)
(4.27403 -4.94752e-20 0)
(4.27076 -4.90337e-20 0)
(4.26748 -4.85972e-20 0)
(4.2642 -4.81657e-20 0)
(4.26091 -4.7739e-20 0)
(4.25761 -4.73171e-20 0)
(4.2543 -4.69e-20 0)
(4.25099 -4.64876e-20 0)
(4.24767 -4.60799e-20 0)
(4.24434 -4.56767e-20 0)
(4.241 -4.52781e-20 0)
(4.23766 -4.4884e-20 0)
(4.23431 -4.44943e-20 0)
(4.23095 -4.4109e-20 0)
(4.22758 -4.3728e-20 0)
(4.2242 -4.33514e-20 0)
(4.22082 -4.29789e-20 0)
(4.21743 -4.26106e-20 0)
(4.21403 -4.22465e-20 0)
(4.21062 -4.18864e-20 0)
(4.2072 -4.15304e-20 0)
(4.20377 -4.11783e-20 0)
(4.20034 -4.08302e-20 0)
(4.1969 -4.04861e-20 0)
(4.19345 -4.01457e-20 0)
(4.18999 -3.98092e-20 0)
(4.18652 -3.94764e-20 0)
(4.18304 -3.91474e-20 0)
(4.17956 -3.8822e-20 0)
(4.17606 -3.85003e-20 0)
(4.17256 -3.81821e-20 0)
(4.16904 -3.78675e-20 0)
(4.16552 -3.75565e-20 0)
(4.16199 -3.72489e-20 0)
(4.15845 -3.69447e-20 0)
(4.1549 -3.66439e-20 0)
(4.15134 -3.63465e-20 0)
(4.14777 -3.60524e-20 0)
(4.14419 -3.57616e-20 0)
(4.14061 -3.54741e-20 0)
(4.13701 -3.51897e-20 0)
(4.1334 -3.49086e-20 0)
(4.12978 -3.46306e-20 0)
(4.12616 -3.43557e-20 0)
(4.12252 -3.40839e-20 0)
(4.11887 -3.38151e-20 0)
(4.11522 -3.35494e-20 0)
(4.11155 -3.32867e-20 0)
(4.10787 -3.30269e-20 0)
(4.10419 -3.27701e-20 0)
(4.10049 -3.25162e-20 0)
(4.09678 -3.22653e-20 0)
(4.09307 -3.20172e-20 0)
(4.08934 -3.1772e-20 0)
(4.08561 -3.15296e-20 0)
(4.08187 -3.12902e-20 0)
(4.07811 -3.10535e-20 0)
(4.07435 -3.08197e-20 0)
(4.07058 -3.05887e-20 0)
(4.0668 -3.03605e-20 0)
(4.06302 -3.01352e-20 0)
(4.05923 -2.99127e-20 0)
(4.05543 -2.96929e-20 0)
(4.05162 -2.9476e-20 0)
(4.0478 -2.92617e-20 0)
(4.04398 -2.90502e-20 0)
(4.04015 -2.88412e-20 0)
(4.03631 -2.86347e-20 0)
(4.03245 -2.84305e-20 0)
(4.02857 -2.82285e-20 0)
(4.02468 -2.80286e-20 0)
(4.02078 -2.78307e-20 0)
(4.01685 -2.7635e-20 0)
(4.01291 -2.74413e-20 0)
(4.00895 -2.72496e-20 0)
(4.00497 -2.706e-20 0)
(4.00097 -2.68723e-20 0)
(3.99695 -2.66866e-20 0)
(3.99292 -2.65028e-20 0)
(3.98887 -2.6321e-20 0)
(3.98479 -2.6141e-20 0)
(3.9807 -2.59629e-20 0)
(3.97659 -2.57867e-20 0)
(3.97245 -2.56122e-20 0)
(3.9683 -2.54396e-20 0)
(3.96412 -2.52688e-20 0)
(3.95993 -2.50997e-20 0)
(3.95571 -2.49323e-20 0)
(3.95147 -2.47667e-20 0)
(3.9472 -2.46028e-20 0)
(3.94292 -2.44405e-20 0)
(3.93861 -2.42799e-20 0)
(3.93427 -2.4121e-20 0)
(3.92992 -2.39636e-20 0)
(3.92554 -2.38079e-20 0)
(3.92113 -2.36538e-20 0)
(3.9167 -2.35012e-20 0)
(3.91224 -2.33501e-20 0)
(3.90776 -2.32006e-20 0)
(3.90325 -2.30526e-20 0)
(3.89871 -2.29061e-20 0)
(3.89415 -2.2761e-20 0)
(3.88956 -2.26174e-20 0)
(3.88494 -2.24752e-20 0)
(3.88029 -2.23345e-20 0)
(3.87561 -2.21951e-20 0)
(3.8709 -2.20571e-20 0)
(3.86616 -2.19205e-20 0)
(3.86139 -2.17853e-20 0)
(3.85659 -2.16513e-20 0)
(3.85176 -2.15187e-20 0)
(3.84689 -2.13874e-20 0)
(3.84199 -2.12573e-20 0)
(3.83706 -2.11286e-20 0)
(3.83209 -2.10011e-20 0)
(3.82708 -2.08748e-20 0)
(3.82205 -2.07497e-20 0)
(3.81697 -2.06258e-20 0)
(3.81186 -2.05031e-20 0)
(3.80671 -2.03816e-20 0)
(3.80152 -2.02613e-20 0)
(3.79629 -2.0142e-20 0)
(3.79102 -2.0024e-20 0)
(3.78571 -1.9907e-20 0)
(3.78036 -1.97911e-20 0)
(3.77496 -1.96763e-20 0)
(3.76952 -1.95625e-20 0)
(3.76404 -1.94498e-20 0)
(3.75851 -1.93381e-20 0)
(3.75294 -1.92275e-20 0)
(3.74732 -1.91178e-20 0)
(3.74165 -1.90091e-20 0)
(3.73593 -1.89015e-20 0)
(3.73016 -1.87947e-20 0)
(3.72434 -1.86889e-20 0)
(3.71846 -1.85841e-20 0)
(3.71254 -1.84801e-20 0)
(3.70656 -1.83771e-20 0)
(3.70052 -1.82749e-20 0)
(3.69442 -1.81736e-20 0)
(3.68827 -1.80732e-20 0)
(3.68206 -1.79736e-20 0)
(3.67578 -1.78748e-20 0)
(3.66945 -1.77769e-20 0)
(3.66304 -1.76797e-20 0)
(3.65658 -1.75833e-20 0)
(3.65004 -1.74877e-20 0)
(3.64344 -1.73928e-20 0)
(3.63677 -1.72986e-20 0)
(3.63002 -1.72052e-20 0)
(3.6232 -1.71125e-20 0)
(3.61631 -1.70205e-20 0)
(3.60933 -1.69291e-20 0)
(3.60228 -1.68384e-20 0)
(3.59515 -1.67483e-20 0)
(3.58793 -1.66588e-20 0)
(3.58062 -1.657e-20 0)
(3.57323 -1.64817e-20 0)
(3.56575 -1.6394e-20 0)
(3.55817 -1.63069e-20 0)
(3.55049 -1.62203e-20 0)
(3.54272 -1.61342e-20 0)
(3.53485 -1.60486e-20 0)
(3.52687 -1.59635e-20 0)
(3.51879 -1.58788e-20 0)
(3.51059 -1.57946e-20 0)
(3.50228 -1.57108e-20 0)
(3.49386 -1.56274e-20 0)
(3.48531 -1.55443e-20 0)
(3.47664 -1.54616e-20 0)
(3.46784 -1.53793e-20 0)
(3.45891 -1.52973e-20 0)
(3.44984 -1.52155e-20 0)
(3.44064 -1.5134e-20 0)
(3.43128 -1.50528e-20 0)
(3.42178 -1.49717e-20 0)
(3.41212 -1.48909e-20 0)
(3.40229 -1.48102e-20 0)
(3.3923 -1.47296e-20 0)
(3.38214 -1.46491e-20 0)
(3.3718 -1.45687e-20 0)
(3.36128 -1.44883e-20 0)
(3.35056 -1.44079e-20 0)
(3.33964 -1.43275e-20 0)
(3.32851 -1.4247e-20 0)
(3.31717 -1.41664e-20 0)
(3.3056 -1.40856e-20 0)
(3.2938 -1.40046e-20 0)
(3.28176 -1.39234e-20 0)
(3.26946 -1.38419e-20 0)
(3.2569 -1.376e-20 0)
(3.24406 -1.36778e-20 0)
(3.23093 -1.35951e-20 0)
(3.21749 -1.35119e-20 0)
(3.20375 -1.34282e-20 0)
(3.18966 -1.33437e-20 0)
(3.17523 -1.32586e-20 0)
(3.16044 -1.31727e-20 0)
(3.14525 -1.3086e-20 0)
(3.12967 -1.29982e-20 0)
(3.11365 -1.29095e-20 0)
(3.09718 -1.28195e-20 0)
(3.08024 -1.27283e-20 0)
(3.06278 -1.26358e-20 0)
(3.0448 -1.25417e-20 0)
(3.02624 -1.2446e-20 0)
(3.00708 -1.23485e-20 0)
(2.98727 -1.2249e-20 0)
(2.96677 -1.21474e-20 0)
(2.94553 -1.20434e-20 0)
(2.92351 -1.19369e-20 0)
(2.90063 -1.18276e-20 0)
(2.87683 -1.17152e-20 0)
(2.85205 -1.15994e-20 0)
(2.82619 -1.14799e-20 0)
(2.79916 -1.13564e-20 0)
(2.77087 -1.12283e-20 0)
(2.74117 -1.10952e-20 0)
(2.70993 -1.09564e-20 0)
(2.67693 -1.08112e-20 0)
(2.64199 -1.06587e-20 0)
(2.60487 -1.0498e-20 0)
(2.56533 -1.03281e-20 0)
(2.52306 -1.01478e-20 0)
(2.4777 -9.95569e-21 0)
(2.42883 -9.75003e-21 0)
(2.37594 -9.52881e-21 0)
(2.31843 -9.28963e-21 0)
(2.25557 -9.02956e-21 0)
(2.18646 -8.74506e-21 0)
(2.11002 -8.43183e-21 0)
(2.02494 -8.08469e-21 0)
(1.92964 -7.69736e-21 0)
(1.82217 -7.26219e-21 0)
(1.69987 -6.76863e-21 0)
(1.55928 -6.20299e-21 0)
(1.39722 -5.55288e-21 0)
(1.21254 -4.81397e-21 0)
(1.00793 -3.99739e-21 0)
(0.790088 -3.13006e-21 0)
(0.566122 -2.24036e-21 0)
(0.340161 -1.34468e-21 0)
(0.113539 -4.48228e-22 0)
)
;

boundaryField
{
    top_wall
    {
        type            noSlip;
    }
    inlet
    {
        type            cyclic;
    }
    bot_wall
    {
        type            noSlip;
    }
    outlet
    {
        type            cyclic;
    }
    frontAndBack
    {
        type            empty;
    }
}


// ************************************************************************* //
