/*--------------------------------*- C++ -*----------------------------------*\
| =========                 |                                                 |
| \\      /  F ield         | OpenFOAM: The Open Source CFD Toolbox           |
|  \\    /   O peration     | Version:  2406                                  |
|   \\  /    A nd           | Website:  www.openfoam.com                      |
|    \\/     M anipulation  |                                                 |
\*---------------------------------------------------------------------------*/
FoamFile
{
    version     2.0;
    format      ascii;
    arch        "LSB;label=32;scalar=64";
    class       volScalarField;
    location    "100";
    object      p;
}
// * * * * * * * * * * * * * * * * * * * * * * * * * * * * * * * * * * * * * //

dimensions      [0 2 -2 0 0 0 0];

internalField   nonuniform List<scalar> 
1000
(
2.79755e-19
9.6587e-19
1.04442e-18
8.87229e-19
9.84457e-19
1.21336e-18
1.45956e-18
1.71737e-18
1.99251e-18
2.09001e-18
2.20478e-18
2.42297e-18
2.58382e-18
2.75627e-18
2.88279e-18
3.13599e-18
3.35477e-18
3.53911e-18
3.72356e-18
3.9081e-18
4.09274e-18
4.27749e-18
4.46233e-18
4.64727e-18
4.83231e-18
5.01745e-18
5.20269e-18
5.38802e-18
5.57346e-18
5.75899e-18
5.94463e-18
6.13035e-18
6.31618e-18
6.50211e-18
6.68813e-18
6.87424e-18
7.06046e-18
7.24677e-18
7.43318e-18
7.61968e-18
7.80628e-18
7.99298e-18
8.17977e-18
8.36665e-18
8.55363e-18
8.74071e-18
8.92788e-18
9.11515e-18
9.3025e-18
9.48996e-18
9.6775e-18
9.86514e-18
1.00529e-17
1.02407e-17
1.04286e-17
1.06166e-17
1.08047e-17
1.09929e-17
1.11812e-17
1.13696e-17
1.15581e-17
1.17466e-17
1.19353e-17
1.21241e-17
1.23129e-17
1.25018e-17
1.26908e-17
1.28799e-17
1.30691e-17
1.32584e-17
1.34478e-17
1.36373e-17
1.38268e-17
1.40165e-17
1.42062e-17
1.4396e-17
1.4586e-17
1.4776e-17
1.4966e-17
1.51562e-17
1.53465e-17
1.55368e-17
1.57273e-17
1.59178e-17
1.61084e-17
1.62991e-17
1.64899e-17
1.66808e-17
1.68717e-17
1.70628e-17
1.72539e-17
1.74451e-17
1.76364e-17
1.78278e-17
1.80192e-17
1.82108e-17
1.84024e-17
1.85941e-17
1.8786e-17
1.89778e-17
1.91698e-17
1.93619e-17
1.9554e-17
1.97462e-17
1.99385e-17
2.01309e-17
2.03234e-17
2.05159e-17
2.07085e-17
2.09013e-17
2.10941e-17
2.12869e-17
2.14799e-17
2.16729e-17
2.1866e-17
2.20592e-17
2.22525e-17
2.24459e-17
2.26393e-17
2.28328e-17
2.30264e-17
2.32201e-17
2.34138e-17
2.36077e-17
2.38016e-17
2.39956e-17
2.41896e-17
2.43838e-17
2.4578e-17
2.47723e-17
2.49667e-17
2.51611e-17
2.53556e-17
2.55502e-17
2.57449e-17
2.59397e-17
2.61345e-17
2.63294e-17
2.65244e-17
2.69145e-17
2.74999e-17
2.73047e-17
2.73047e-17
2.75001e-17
2.76955e-17
2.7891e-17
2.80866e-17
2.82822e-17
2.8478e-17
2.86738e-17
2.88697e-17
2.90656e-17
2.92616e-17
2.94577e-17
2.96539e-17
2.98501e-17
3.00464e-17
3.02428e-17
3.04392e-17
3.06358e-17
3.08324e-17
3.1029e-17
3.12257e-17
3.14226e-17
3.16194e-17
3.18164e-17
3.20134e-17
3.22105e-17
3.25062e-17
3.27034e-17
3.24075e-17
3.1618e-17
3.27039e-17
3.32964e-17
3.34939e-17
3.36916e-17
3.38893e-17
3.4087e-17
3.42849e-17
3.44828e-17
3.46807e-17
3.48788e-17
3.50769e-17
3.5275e-17
3.54732e-17
3.56715e-17
3.58699e-17
3.60683e-17
3.62668e-17
3.64654e-17
3.6664e-17
3.68627e-17
3.70614e-17
3.72602e-17
3.74591e-17
3.76581e-17
3.78571e-17
3.80561e-17
3.82553e-17
3.84545e-17
3.86537e-17
3.87534e-17
3.84543e-17
3.77563e-17
3.84545e-17
3.88537e-17
3.88537e-17
3.88537e-17
3.88537e-17
3.88537e-17
3.88537e-17
3.88537e-17
3.88537e-17
3.88537e-17
3.88537e-17
3.88537e-17
3.88537e-17
3.88537e-17
3.88537e-17
3.88537e-17
3.88537e-17
3.88537e-17
3.88537e-17
3.88537e-17
3.88537e-17
3.88537e-17
3.88537e-17
3.88537e-17
3.88537e-17
3.88537e-17
3.88537e-17
3.88537e-17
3.88537e-17
3.88537e-17
3.88537e-17
3.88537e-17
3.88537e-17
3.88537e-17
3.88537e-17
3.88537e-17
3.88537e-17
3.88537e-17
3.88537e-17
3.88537e-17
3.88537e-17
3.88537e-17
3.88537e-17
3.88537e-17
3.88537e-17
3.88537e-17
3.88537e-17
3.88537e-17
3.88537e-17
3.88537e-17
3.88537e-17
3.88537e-17
3.88537e-17
3.88537e-17
3.88537e-17
3.88537e-17
3.88537e-17
3.88537e-17
3.88537e-17
3.88537e-17
3.88537e-17
3.88537e-17
3.88537e-17
3.88537e-17
3.88537e-17
3.88537e-17
3.88537e-17
3.88537e-17
3.88537e-17
3.88537e-17
3.88537e-17
3.88537e-17
3.88537e-17
3.88537e-17
3.88537e-17
3.88537e-17
3.88537e-17
3.88537e-17
3.88537e-17
3.88537e-17
3.88537e-17
3.88537e-17
3.88537e-17
3.88537e-17
3.88537e-17
3.88537e-17
3.88537e-17
3.88537e-17
3.88537e-17
3.88537e-17
3.88537e-17
3.88537e-17
3.88537e-17
3.88537e-17
3.88537e-17
3.88537e-17
3.88537e-17
3.88537e-17
3.88537e-17
3.88537e-17
3.88537e-17
3.88537e-17
3.88537e-17
3.88537e-17
3.88537e-17
3.88537e-17
3.88537e-17
3.88537e-17
3.88537e-17
3.88537e-17
3.88537e-17
3.88537e-17
3.88537e-17
3.88537e-17
3.88537e-17
3.88537e-17
3.88537e-17
3.88537e-17
3.88537e-17
3.88537e-17
3.88537e-17
3.88537e-17
3.88537e-17
3.88537e-17
3.88537e-17
3.88537e-17
3.88537e-17
3.88537e-17
3.88537e-17
3.88537e-17
3.88537e-17
3.88537e-17
3.88537e-17
3.88537e-17
3.88537e-17
3.88537e-17
3.88537e-17
3.88537e-17
3.88537e-17
3.88537e-17
3.88537e-17
3.88537e-17
3.88537e-17
3.88537e-17
3.88537e-17
3.88537e-17
3.88537e-17
3.88537e-17
3.88537e-17
3.88537e-17
3.88537e-17
3.88537e-17
3.88537e-17
3.88537e-17
3.88537e-17
3.88537e-17
3.88537e-17
3.88537e-17
3.88537e-17
3.88537e-17
3.88537e-17
3.88537e-17
3.88537e-17
3.88537e-17
3.88537e-17
3.88537e-17
3.88537e-17
3.88537e-17
3.88537e-17
3.88537e-17
3.88537e-17
3.88537e-17
3.88537e-17
3.88537e-17
3.88537e-17
3.88537e-17
3.88537e-17
3.88537e-17
3.88537e-17
3.88537e-17
3.88537e-17
3.88537e-17
3.88537e-17
3.88537e-17
3.88537e-17
3.88537e-17
3.88537e-17
3.88537e-17
3.88537e-17
3.88537e-17
3.88537e-17
3.88537e-17
3.88537e-17
3.88537e-17
3.88537e-17
3.88537e-17
3.88537e-17
3.88537e-17
3.88537e-17
3.88537e-17
3.88537e-17
3.88537e-17
3.88537e-17
3.88537e-17
3.88537e-17
3.88537e-17
3.88537e-17
3.88537e-17
3.88537e-17
3.88537e-17
3.88537e-17
3.88537e-17
3.88537e-17
3.88537e-17
3.88537e-17
3.88537e-17
3.88537e-17
3.88537e-17
3.88537e-17
3.88537e-17
3.88537e-17
3.88537e-17
3.88537e-17
3.88537e-17
3.88537e-17
3.88537e-17
3.88537e-17
3.88537e-17
3.88537e-17
3.88537e-17
3.88537e-17
3.88537e-17
3.88537e-17
3.88537e-17
3.88537e-17
3.88537e-17
3.88537e-17
3.88537e-17
3.88537e-17
3.88537e-17
3.88537e-17
3.88537e-17
3.88537e-17
3.88537e-17
3.88537e-17
3.88537e-17
3.88537e-17
3.88537e-17
3.88537e-17
3.88537e-17
3.88537e-17
3.88537e-17
3.88537e-17
3.88537e-17
3.88537e-17
3.88537e-17
3.88537e-17
3.88537e-17
3.88537e-17
3.88537e-17
3.88537e-17
3.88537e-17
3.88537e-17
3.88537e-17
3.88537e-17
3.88537e-17
3.88537e-17
3.88537e-17
3.88537e-17
3.88537e-17
3.88537e-17
3.88537e-17
3.88537e-17
3.88537e-17
3.88537e-17
3.88537e-17
3.88537e-17
3.88537e-17
3.88537e-17
3.88537e-17
3.88537e-17
3.88537e-17
3.88537e-17
3.88537e-17
3.88537e-17
3.88537e-17
3.88537e-17
3.88537e-17
3.88537e-17
3.88537e-17
3.88537e-17
3.88537e-17
3.88537e-17
3.88537e-17
3.88537e-17
3.88537e-17
3.88537e-17
3.88537e-17
3.88537e-17
3.88537e-17
3.88537e-17
3.88537e-17
3.88537e-17
3.88537e-17
3.88537e-17
3.88537e-17
3.88537e-17
3.88537e-17
3.88537e-17
3.88537e-17
3.88537e-17
3.88537e-17
3.88537e-17
3.88537e-17
3.88537e-17
3.88537e-17
3.88537e-17
3.88537e-17
3.88537e-17
3.88537e-17
3.88537e-17
3.88537e-17
3.88537e-17
3.88537e-17
3.88537e-17
3.88537e-17
3.88537e-17
3.88537e-17
3.88537e-17
3.88537e-17
3.88537e-17
3.88537e-17
3.88537e-17
3.88537e-17
3.88537e-17
3.88537e-17
3.88537e-17
3.88537e-17
3.88537e-17
3.88537e-17
3.88537e-17
3.88537e-17
3.88537e-17
3.88537e-17
3.88537e-17
3.88537e-17
3.88537e-17
3.88537e-17
3.88537e-17
3.88537e-17
3.88537e-17
3.88537e-17
3.88537e-17
3.88537e-17
3.88537e-17
3.88537e-17
3.88537e-17
3.88537e-17
3.88537e-17
3.88537e-17
3.88537e-17
3.88537e-17
3.88537e-17
3.88537e-17
3.88537e-17
3.88537e-17
3.88537e-17
3.88537e-17
3.88537e-17
3.88537e-17
3.88537e-17
3.88537e-17
3.88537e-17
3.88537e-17
3.88537e-17
3.88537e-17
3.88537e-17
3.88537e-17
3.88537e-17
3.88537e-17
3.88537e-17
3.88537e-17
3.88537e-17
3.88537e-17
3.88537e-17
3.88537e-17
3.88537e-17
3.88537e-17
3.88537e-17
3.88537e-17
3.88537e-17
3.88537e-17
3.88537e-17
3.88537e-17
3.88537e-17
3.88537e-17
3.88537e-17
3.88537e-17
3.88537e-17
3.88537e-17
3.88537e-17
3.88537e-17
3.88537e-17
3.88537e-17
3.88537e-17
3.88537e-17
3.88537e-17
3.88537e-17
3.88537e-17
3.88537e-17
3.88537e-17
3.88537e-17
3.88537e-17
3.88537e-17
3.88537e-17
3.88537e-17
3.88537e-17
3.88537e-17
3.88537e-17
3.88537e-17
3.88537e-17
3.88537e-17
3.88537e-17
3.88537e-17
3.88537e-17
3.88537e-17
3.88537e-17
3.88537e-17
3.88537e-17
3.88537e-17
3.88537e-17
3.88537e-17
3.88537e-17
3.88537e-17
3.88537e-17
3.88537e-17
3.88537e-17
3.88537e-17
3.88537e-17
3.88537e-17
3.88537e-17
3.88537e-17
3.88537e-17
3.88537e-17
3.88537e-17
3.88537e-17
3.88537e-17
3.88537e-17
3.88537e-17
3.88537e-17
3.88537e-17
3.88537e-17
3.88537e-17
3.88537e-17
3.88537e-17
3.88537e-17
3.88537e-17
3.88537e-17
3.88537e-17
3.88537e-17
3.88537e-17
3.88537e-17
3.88537e-17
3.88537e-17
3.88537e-17
3.88537e-17
3.88537e-17
3.88537e-17
3.88537e-17
3.88537e-17
3.88537e-17
3.88537e-17
3.88537e-17
3.88537e-17
3.88537e-17
3.88537e-17
3.88537e-17
3.88537e-17
3.88537e-17
3.88537e-17
3.88537e-17
3.88537e-17
3.88537e-17
3.88537e-17
3.88537e-17
3.88537e-17
3.88537e-17
3.88537e-17
3.88537e-17
3.88537e-17
3.88537e-17
3.88536e-17
3.88536e-17
3.88536e-17
3.88536e-17
3.88536e-17
3.88536e-17
3.88536e-17
3.88536e-17
3.88536e-17
3.88536e-17
3.88536e-17
3.88536e-17
3.88536e-17
3.88536e-17
3.88536e-17
3.88536e-17
3.88536e-17
3.88536e-17
3.88536e-17
3.88536e-17
3.88536e-17
3.88536e-17
3.88536e-17
3.88536e-17
3.88536e-17
3.88536e-17
3.88536e-17
3.88536e-17
3.88536e-17
3.88536e-17
3.88536e-17
3.88536e-17
3.88536e-17
3.88536e-17
3.88536e-17
3.88536e-17
3.88536e-17
3.88536e-17
3.88536e-17
3.88536e-17
3.88536e-17
3.88536e-17
3.88536e-17
3.88536e-17
3.88536e-17
3.88536e-17
3.88536e-17
3.88536e-17
3.88536e-17
3.88536e-17
3.88536e-17
3.88536e-17
3.88536e-17
3.88536e-17
3.88536e-17
3.88536e-17
3.88536e-17
3.88536e-17
3.88536e-17
3.88536e-17
3.88536e-17
3.88536e-17
3.88536e-17
3.88536e-17
3.88536e-17
3.88536e-17
3.88536e-17
3.88536e-17
3.88536e-17
3.88536e-17
3.88536e-17
3.88536e-17
3.88536e-17
3.88536e-17
3.88536e-17
3.88536e-17
3.88536e-17
3.88536e-17
3.88536e-17
3.88536e-17
3.88536e-17
3.88536e-17
3.88536e-17
3.88536e-17
3.88536e-17
3.88536e-17
3.88536e-17
3.88536e-17
3.88536e-17
3.88536e-17
3.88536e-17
3.88536e-17
3.88536e-17
3.88536e-17
3.88536e-17
3.88536e-17
3.88536e-17
3.88536e-17
3.88536e-17
3.88536e-17
3.88536e-17
3.88536e-17
3.88536e-17
3.88536e-17
3.88536e-17
3.88536e-17
3.88536e-17
3.88536e-17
3.88536e-17
3.88536e-17
3.88536e-17
3.88536e-17
3.88536e-17
3.88536e-17
3.88536e-17
3.88536e-17
3.88536e-17
3.88536e-17
3.88536e-17
3.88536e-17
3.88536e-17
3.88536e-17
3.88536e-17
3.88536e-17
3.88536e-17
3.88536e-17
3.88536e-17
3.88536e-17
3.88536e-17
3.88536e-17
3.88536e-17
3.88536e-17
3.88536e-17
3.88536e-17
3.88536e-17
3.88536e-17
3.88536e-17
3.88536e-17
3.88536e-17
3.88536e-17
3.88536e-17
3.88536e-17
3.88536e-17
3.88536e-17
3.88536e-17
3.88536e-17
3.88536e-17
3.88536e-17
3.88536e-17
3.88536e-17
3.88536e-17
3.88536e-17
3.88536e-17
3.88536e-17
3.88536e-17
3.88536e-17
3.88536e-17
3.88536e-17
3.88536e-17
3.88536e-17
3.88536e-17
3.88536e-17
3.88536e-17
3.88536e-17
3.88536e-17
3.88536e-17
3.88536e-17
3.88536e-17
3.88536e-17
3.88536e-17
3.88536e-17
3.88536e-17
3.88536e-17
3.88536e-17
3.88536e-17
3.88536e-17
3.88536e-17
3.88536e-17
3.88536e-17
3.88536e-17
3.88536e-17
3.88536e-17
3.88536e-17
3.88536e-17
3.88536e-17
3.88536e-17
3.88536e-17
3.88536e-17
3.88536e-17
3.88536e-17
3.88536e-17
3.88536e-17
3.88536e-17
3.88536e-17
3.88536e-17
3.88536e-17
3.88536e-17
3.88536e-17
3.88536e-17
3.88536e-17
3.88536e-17
3.88536e-17
3.88536e-17
3.88536e-17
3.88536e-17
3.88536e-17
3.88536e-17
3.88536e-17
3.88536e-17
3.88536e-17
3.88536e-17
3.88536e-17
3.88536e-17
3.88536e-17
3.88536e-17
3.88536e-17
3.88536e-17
3.88536e-17
3.88536e-17
3.88536e-17
3.88536e-17
3.88536e-17
3.88536e-17
3.88536e-17
3.88536e-17
3.88536e-17
3.88536e-17
3.88536e-17
3.88536e-17
3.88536e-17
3.88536e-17
3.88536e-17
3.88536e-17
3.88536e-17
3.88536e-17
3.88536e-17
3.88536e-17
3.88536e-17
3.88536e-17
3.88536e-17
3.88536e-17
3.88536e-17
3.88536e-17
3.88536e-17
3.88536e-17
3.88536e-17
3.88536e-17
3.88536e-17
3.88536e-17
3.88536e-17
3.88536e-17
3.88536e-17
3.88536e-17
3.88536e-17
3.88536e-17
3.88536e-17
3.88536e-17
3.88536e-17
3.88536e-17
3.88536e-17
3.88536e-17
3.88536e-17
3.88536e-17
3.88536e-17
3.88536e-17
3.88536e-17
3.88536e-17
3.88536e-17
3.88536e-17
3.88536e-17
3.88536e-17
3.88536e-17
3.88536e-17
3.88536e-17
3.88536e-17
3.88536e-17
3.88536e-17
3.88536e-17
3.88536e-17
3.88536e-17
3.88536e-17
3.88536e-17
3.88536e-17
3.88536e-17
3.88536e-17
3.88536e-17
3.88536e-17
3.88536e-17
3.88536e-17
3.88536e-17
3.88536e-17
3.88536e-17
3.88536e-17
3.88536e-17
3.88536e-17
3.88536e-17
3.88536e-17
3.88536e-17
3.88536e-17
3.88536e-17
3.88536e-17
3.88536e-17
3.88536e-17
3.88536e-17
3.88536e-17
)
;

boundaryField
{
    top_wall
    {
        type            zeroGradient;
    }
    inlet
    {
        type            cyclic;
    }
    bot_wall
    {
        type            zeroGradient;
    }
    outlet
    {
        type            cyclic;
    }
    frontAndBack
    {
        type            empty;
    }
}


// ************************************************************************* //
