/*--------------------------------*- C++ -*----------------------------------*\
| =========                 |                                                 |
| \\      /  F ield         | OpenFOAM: The Open Source CFD Toolbox           |
|  \\    /   O peration     | Version:  2406                                  |
|   \\  /    A nd           | Website:  www.openfoam.com                      |
|    \\/     M anipulation  |                                                 |
\*---------------------------------------------------------------------------*/
FoamFile
{
    version     2.0;
    format      ascii;
    arch        "LSB;label=32;scalar=64";
    class       surfaceScalarField;
    location    "100";
    object      phi;
}
// * * * * * * * * * * * * * * * * * * * * * * * * * * * * * * * * * * * * * //

dimensions      [0 3 -1 0 0 0 0];

oriented        oriented;

internalField   nonuniform List<scalar> 
999
(
-6.96276e-19
-6.95192e-19
-6.95888e-19
-6.91569e-19
-6.90887e-19
-7.02542e-19
-6.94223e-19
-6.99544e-19
-6.83642e-19
-6.74638e-19
-6.82272e-19
-6.93944e-19
-6.80851e-19
-6.98363e-19
-6.9405e-19
-7.07678e-19
-7.20642e-19
-7.3085e-19
-7.35803e-19
-7.38619e-19
-7.40116e-19
-7.40888e-19
-7.41349e-19
-7.41779e-19
-7.42352e-19
-7.43169e-19
-7.44277e-19
-7.45688e-19
-7.4739e-19
-7.49357e-19
-7.51558e-19
-7.53955e-19
-7.56515e-19
-7.59203e-19
-7.61989e-19
-7.64846e-19
-7.67751e-19
-7.70684e-19
-7.7363e-19
-7.76575e-19
-7.79508e-19
-7.82421e-19
-7.85308e-19
-7.88163e-19
-7.90982e-19
-7.93762e-19
-7.96501e-19
-7.99197e-19
-8.01849e-19
-8.04456e-19
-8.07017e-19
-8.0953e-19
-8.11994e-19
-8.14408e-19
-8.16771e-19
-8.19082e-19
-8.21338e-19
-8.23538e-19
-8.25679e-19
-8.27759e-19
-8.29776e-19
-8.31727e-19
-8.33608e-19
-8.35418e-19
-8.37152e-19
-8.38808e-19
-8.40381e-19
-8.4187e-19
-8.43269e-19
-8.44576e-19
-8.45787e-19
-8.46899e-19
-8.47909e-19
-8.48813e-19
-8.49609e-19
-8.50294e-19
-8.50867e-19
-8.51325e-19
-8.51666e-19
-8.51891e-19
-8.51999e-19
-8.51989e-19
-8.51865e-19
-8.51626e-19
-8.51276e-19
-8.50819e-19
-8.50261e-19
-8.49606e-19
-8.48863e-19
-8.48042e-19
-8.47152e-19
-8.46208e-19
-8.45223e-19
-8.44215e-19
-8.43204e-19
-8.42214e-19
-8.41271e-19
-8.40406e-19
-8.39655e-19
-8.39056e-19
-8.38658e-19
-8.38514e-19
-8.38685e-19
-8.39241e-19
-8.40266e-19
-8.41852e-19
-8.44109e-19
-8.47159e-19
-8.51149e-19
-8.56242e-19
-8.62631e-19
-8.70533e-19
-8.80202e-19
-8.91929e-19
-9.06049e-19
-9.22951e-19
-9.43083e-19
-9.66971e-19
-9.94178e-19
-1.02427e-18
-1.05777e-18
-1.09512e-18
-1.13675e-18
-1.18318e-18
-1.23494e-18
-1.29263e-18
-1.35687e-18
-1.42829e-18
-1.50748e-18
-1.59497e-18
-1.69119e-18
-1.79541e-18
-1.90677e-18
-2.02506e-18
-2.1496e-18
-2.27898e-18
-2.40973e-18
-2.52818e-18
-2.65338e-18
-2.75466e-18
-2.64018e-18
-2.74208e-18
-2.86843e-18
-2.98836e-18
-3.12085e-18
-3.25216e-18
-3.3788e-18
-3.49934e-18
-3.61307e-18
-3.71979e-18
-3.81861e-18
-3.90882e-18
-3.99082e-18
-4.06517e-18
-4.13246e-18
-4.19334e-18
-4.24845e-18
-4.29844e-18
-4.34395e-18
-4.3856e-18
-4.42295e-18
-4.45548e-18
-4.48455e-18
-4.51149e-18
-4.53569e-18
-4.55657e-18
-4.57017e-18
-4.59476e-18
-4.58903e-18
-4.58304e-18
-4.60731e-18
-5.1231e-18
-5.17796e-18
-5.24003e-18
-5.30476e-18
-5.34909e-18
-5.39137e-18
-5.43132e-18
-5.46858e-18
-5.50267e-18
-5.53296e-18
-5.55973e-18
-5.58322e-18
-5.6027e-18
-5.6174e-18
-5.62645e-18
-5.62892e-18
-5.62377e-18
-5.60995e-18
-5.58637e-18
-5.55288e-18
-5.50926e-18
-5.45423e-18
-5.38652e-18
-5.30477e-18
-5.20749e-18
-5.09291e-18
-4.95879e-18
-4.80325e-18
-4.62907e-18
-4.43904e-18
-4.25561e-18
-4.16428e-18
-4.09548e-18
-4.06627e-18
-3.95388e-18
-3.86987e-18
-3.78036e-18
-3.70092e-18
-3.62961e-18
-3.56432e-18
-3.50359e-18
-3.44654e-18
-3.39261e-18
-3.34143e-18
-3.2928e-18
-3.24656e-18
-3.2026e-18
-3.16082e-18
-3.12112e-18
-3.08341e-18
-3.04756e-18
-3.01349e-18
-2.98107e-18
-2.95022e-18
-2.92085e-18
-2.89288e-18
-2.86624e-18
-2.84086e-18
-2.8167e-18
-2.79371e-18
-2.77183e-18
-2.75102e-18
-2.73125e-18
-2.71248e-18
-2.69465e-18
-2.67774e-18
-2.66169e-18
-2.64646e-18
-2.63202e-18
-2.6183e-18
-2.60527e-18
-2.59289e-18
-2.58109e-18
-2.56984e-18
-2.5591e-18
-2.54881e-18
-2.53893e-18
-2.52943e-18
-2.52025e-18
-2.51137e-18
-2.50275e-18
-2.49435e-18
-2.48613e-18
-2.47808e-18
-2.47016e-18
-2.46235e-18
-2.45462e-18
-2.44695e-18
-2.43933e-18
-2.43173e-18
-2.42415e-18
-2.41656e-18
-2.40896e-18
-2.40134e-18
-2.39368e-18
-2.38598e-18
-2.37824e-18
-2.37044e-18
-2.3626e-18
-2.35469e-18
-2.34673e-18
-2.3387e-18
-2.33062e-18
-2.32248e-18
-2.31427e-18
-2.30601e-18
-2.2977e-18
-2.28932e-18
-2.2809e-18
-2.27243e-18
-2.26391e-18
-2.25535e-18
-2.24675e-18
-2.23811e-18
-2.22944e-18
-2.22073e-18
-2.212e-18
-2.20325e-18
-2.19447e-18
-2.18568e-18
-2.17687e-18
-2.16806e-18
-2.15923e-18
-2.15041e-18
-2.14158e-18
-2.13275e-18
-2.12392e-18
-2.1151e-18
-2.10629e-18
-2.09749e-18
-2.08871e-18
-2.07994e-18
-2.07119e-18
-2.06245e-18
-2.05374e-18
-2.04506e-18
-2.0364e-18
-2.02776e-18
-2.01916e-18
-2.01058e-18
-2.00203e-18
-1.99352e-18
-1.98504e-18
-1.97659e-18
-1.96818e-18
-1.95981e-18
-1.95147e-18
-1.94316e-18
-1.9349e-18
-1.92667e-18
-1.91849e-18
-1.91034e-18
-1.90223e-18
-1.89417e-18
-1.88614e-18
-1.87815e-18
-1.87021e-18
-1.8623e-18
-1.85444e-18
-1.84662e-18
-1.83884e-18
-1.8311e-18
-1.8234e-18
-1.81574e-18
-1.80813e-18
-1.80055e-18
-1.79302e-18
-1.78553e-18
-1.77807e-18
-1.77066e-18
-1.76329e-18
-1.75596e-18
-1.74867e-18
-1.74142e-18
-1.7342e-18
-1.72703e-18
-1.7199e-18
-1.7128e-18
-1.70575e-18
-1.69873e-18
-1.69175e-18
-1.6848e-18
-1.6779e-18
-1.67103e-18
-1.6642e-18
-1.65741e-18
-1.65065e-18
-1.64393e-18
-1.63724e-18
-1.63059e-18
-1.62398e-18
-1.6174e-18
-1.61085e-18
-1.60434e-18
-1.59787e-18
-1.59143e-18
-1.58502e-18
-1.57865e-18
-1.57231e-18
-1.566e-18
-1.55973e-18
-1.55349e-18
-1.54728e-18
-1.5411e-18
-1.53496e-18
-1.52885e-18
-1.52277e-18
-1.51672e-18
-1.5107e-18
-1.50472e-18
-1.49876e-18
-1.49284e-18
-1.48695e-18
-1.48108e-18
-1.47525e-18
-1.46945e-18
-1.46368e-18
-1.45793e-18
-1.45222e-18
-1.44654e-18
-1.44088e-18
-1.43526e-18
-1.42966e-18
-1.42409e-18
-1.41855e-18
-1.41304e-18
-1.40756e-18
-1.4021e-18
-1.39667e-18
-1.39127e-18
-1.3859e-18
-1.38056e-18
-1.37524e-18
-1.36995e-18
-1.36468e-18
-1.35945e-18
-1.35424e-18
-1.34905e-18
-1.34389e-18
-1.33876e-18
-1.33365e-18
-1.32857e-18
-1.32352e-18
-1.31849e-18
-1.31349e-18
-1.30851e-18
-1.30355e-18
-1.29862e-18
-1.29372e-18
-1.28884e-18
-1.28398e-18
-1.27915e-18
-1.27434e-18
-1.26956e-18
-1.2648e-18
-1.26006e-18
-1.25535e-18
-1.25065e-18
-1.24599e-18
-1.24134e-18
-1.23672e-18
-1.23212e-18
-1.22754e-18
-1.22298e-18
-1.21845e-18
-1.21394e-18
-1.20944e-18
-1.20497e-18
-1.20053e-18
-1.1961e-18
-1.19169e-18
-1.18731e-18
-1.18294e-18
-1.17859e-18
-1.17427e-18
-1.16996e-18
-1.16568e-18
-1.16141e-18
-1.15717e-18
-1.15294e-18
-1.14873e-18
-1.14454e-18
-1.14037e-18
-1.13622e-18
-1.13209e-18
-1.12797e-18
-1.12387e-18
-1.11979e-18
-1.11573e-18
-1.11169e-18
-1.10766e-18
-1.10365e-18
-1.09966e-18
-1.09568e-18
-1.09172e-18
-1.08778e-18
-1.08385e-18
-1.07994e-18
-1.07605e-18
-1.07217e-18
-1.0683e-18
-1.06446e-18
-1.06062e-18
-1.05681e-18
-1.05301e-18
-1.04922e-18
-1.04545e-18
-1.04169e-18
-1.03795e-18
-1.03422e-18
-1.0305e-18
-1.0268e-18
-1.02311e-18
-1.01944e-18
-1.01578e-18
-1.01213e-18
-1.0085e-18
-1.00488e-18
-1.00127e-18
-9.97679e-19
-9.94097e-19
-9.90528e-19
-9.86971e-19
-9.83427e-19
-9.79895e-19
-9.76374e-19
-9.72866e-19
-9.6937e-19
-9.65883e-19
-9.62403e-19
-9.58933e-19
-9.55474e-19
-9.52027e-19
-9.4859e-19
-9.45165e-19
-9.4175e-19
-9.38346e-19
-9.34952e-19
-9.3157e-19
-9.28197e-19
-9.24835e-19
-9.21483e-19
-9.18141e-19
-9.14809e-19
-9.11487e-19
-9.08175e-19
-9.04873e-19
-9.0158e-19
-8.98297e-19
-8.95023e-19
-8.91758e-19
-8.88503e-19
-8.85257e-19
-8.8202e-19
-8.78792e-19
-8.75573e-19
-8.72363e-19
-8.69162e-19
-8.65969e-19
-8.62785e-19
-8.59609e-19
-8.56442e-19
-8.53283e-19
-8.50133e-19
-8.46991e-19
-8.43857e-19
-8.40731e-19
-8.37613e-19
-8.34503e-19
-8.31401e-19
-8.28307e-19
-8.25221e-19
-8.22143e-19
-8.19072e-19
-8.16009e-19
-8.12953e-19
-8.09905e-19
-8.06865e-19
-8.03832e-19
-8.00806e-19
-7.97788e-19
-7.94777e-19
-7.91773e-19
-7.88776e-19
-7.85786e-19
-7.82804e-19
-7.79828e-19
-7.7686e-19
-7.73898e-19
-7.70944e-19
-7.67996e-19
-7.65055e-19
-7.62121e-19
-7.59194e-19
-7.56274e-19
-7.5336e-19
-7.50453e-19
-7.47552e-19
-7.44658e-19
-7.41771e-19
-7.3889e-19
-7.36016e-19
-7.33148e-19
-7.30286e-19
-7.27431e-19
-7.24583e-19
-7.21741e-19
-7.18905e-19
-7.16075e-19
-7.13252e-19
-7.10435e-19
-7.07624e-19
-7.0482e-19
-7.02021e-19
-6.99229e-19
-6.96443e-19
-6.93663e-19
-6.9089e-19
-6.88122e-19
-6.85361e-19
-6.82605e-19
-6.79856e-19
-6.77112e-19
-6.74375e-19
-6.71643e-19
-6.68918e-19
-6.66198e-19
-6.63485e-19
-6.60777e-19
-6.58075e-19
-6.55379e-19
-6.52689e-19
-6.50005e-19
-6.47327e-19
-6.44654e-19
-6.41988e-19
-6.39327e-19
-6.36672e-19
-6.34023e-19
-6.31379e-19
-6.28742e-19
-6.2611e-19
-6.23484e-19
-6.20863e-19
-6.18249e-19
-6.1564e-19
-6.13036e-19
-6.10439e-19
-6.07847e-19
-6.05261e-19
-6.0268e-19
-6.00106e-19
-5.97536e-19
-5.94973e-19
-5.92415e-19
-5.89863e-19
-5.87316e-19
-5.84775e-19
-5.8224e-19
-5.7971e-19
-5.77185e-19
-5.74667e-19
-5.72154e-19
-5.69646e-19
-5.67144e-19
-5.64648e-19
-5.62157e-19
-5.59672e-19
-5.57192e-19
-5.54718e-19
-5.52249e-19
-5.49786e-19
-5.47329e-19
-5.44876e-19
-5.4243e-19
-5.39989e-19
-5.37553e-19
-5.35123e-19
-5.32698e-19
-5.30279e-19
-5.27865e-19
-5.25457e-19
-5.23054e-19
-5.20657e-19
-5.18265e-19
-5.15879e-19
-5.13498e-19
-5.11122e-19
-5.08752e-19
-5.06388e-19
-5.04028e-19
-5.01674e-19
-4.99326e-19
-4.96983e-19
-4.94645e-19
-4.92313e-19
-4.89986e-19
-4.87665e-19
-4.85349e-19
-4.83038e-19
-4.80733e-19
-4.78433e-19
-4.76139e-19
-4.73849e-19
-4.71566e-19
-4.69287e-19
-4.67014e-19
-4.64746e-19
-4.62484e-19
-4.60227e-19
-4.57975e-19
-4.55729e-19
-4.53488e-19
-4.51252e-19
-4.49022e-19
-4.46796e-19
-4.44577e-19
-4.42362e-19
-4.40153e-19
-4.37949e-19
-4.3575e-19
-4.33557e-19
-4.31369e-19
-4.29186e-19
-4.27009e-19
-4.24837e-19
-4.2267e-19
-4.20508e-19
-4.18352e-19
-4.16201e-19
-4.14055e-19
-4.11914e-19
-4.09779e-19
-4.07649e-19
-4.05524e-19
-4.03404e-19
-4.0129e-19
-3.9918e-19
-3.97077e-19
-3.94978e-19
-3.92884e-19
-3.90796e-19
-3.88713e-19
-3.86635e-19
-3.84562e-19
-3.82495e-19
-3.80433e-19
-3.78376e-19
-3.76324e-19
-3.74277e-19
-3.72235e-19
-3.70199e-19
-3.68168e-19
-3.66142e-19
-3.64121e-19
-3.62106e-19
-3.60095e-19
-3.5809e-19
-3.5609e-19
-3.54095e-19
-3.52105e-19
-3.5012e-19
-3.48141e-19
-3.46166e-19
-3.44197e-19
-3.42233e-19
-3.40274e-19
-3.3832e-19
-3.36372e-19
-3.34428e-19
-3.3249e-19
-3.30556e-19
-3.28628e-19
-3.26705e-19
-3.24787e-19
-3.22874e-19
-3.20966e-19
-3.19064e-19
-3.17166e-19
-3.15274e-19
-3.13387e-19
-3.11504e-19
-3.09627e-19
-3.07755e-19
-3.05888e-19
-3.04026e-19
-3.0217e-19
-3.00318e-19
-2.98471e-19
-2.9663e-19
-2.94793e-19
-2.92962e-19
-2.91136e-19
-2.89315e-19
-2.87498e-19
-2.85687e-19
-2.83881e-19
-2.8208e-19
-2.80284e-19
-2.78494e-19
-2.76708e-19
-2.74927e-19
-2.73152e-19
-2.71381e-19
-2.69615e-19
-2.67855e-19
-2.66099e-19
-2.64349e-19
-2.62604e-19
-2.60863e-19
-2.59128e-19
-2.57398e-19
-2.55673e-19
-2.53953e-19
-2.52237e-19
-2.50527e-19
-2.48822e-19
-2.47122e-19
-2.45427e-19
-2.43737e-19
-2.42052e-19
-2.40372e-19
-2.38698e-19
-2.37028e-19
-2.35363e-19
-2.33703e-19
-2.32048e-19
-2.30398e-19
-2.28754e-19
-2.27114e-19
-2.25479e-19
-2.2385e-19
-2.22225e-19
-2.20605e-19
-2.1899e-19
-2.17381e-19
-2.15776e-19
-2.14176e-19
-2.12582e-19
-2.10992e-19
-2.09407e-19
-2.07828e-19
-2.06253e-19
-2.04683e-19
-2.03119e-19
-2.01559e-19
-2.00004e-19
-1.98455e-19
-1.9691e-19
-1.9537e-19
-1.93836e-19
-1.92306e-19
-1.90781e-19
-1.89261e-19
-1.87747e-19
-1.86237e-19
-1.84732e-19
-1.83232e-19
-1.81737e-19
-1.80247e-19
-1.78763e-19
-1.77283e-19
-1.75808e-19
-1.74338e-19
-1.72873e-19
-1.71413e-19
-1.69958e-19
-1.68508e-19
-1.67063e-19
-1.65623e-19
-1.64187e-19
-1.62757e-19
-1.61332e-19
-1.59912e-19
-1.58496e-19
-1.57086e-19
-1.55681e-19
-1.5428e-19
-1.52885e-19
-1.51495e-19
-1.50109e-19
-1.48729e-19
-1.47353e-19
-1.45982e-19
-1.44617e-19
-1.43256e-19
-1.41901e-19
-1.4055e-19
-1.39204e-19
-1.37863e-19
-1.36528e-19
-1.35197e-19
-1.33871e-19
-1.3255e-19
-1.31234e-19
-1.29923e-19
-1.28618e-19
-1.27317e-19
-1.26021e-19
-1.2473e-19
-1.23444e-19
-1.22163e-19
-1.20887e-19
-1.19616e-19
-1.18351e-19
-1.1709e-19
-1.15834e-19
-1.14583e-19
-1.13338e-19
-1.12097e-19
-1.10861e-19
-1.09631e-19
-1.08405e-19
-1.07185e-19
-1.0597e-19
-1.04759e-19
-1.03554e-19
-1.02354e-19
-1.01159e-19
-9.99694e-20
-9.87847e-20
-9.76052e-20
-9.64308e-20
-9.52616e-20
-9.40975e-20
-9.29386e-20
-9.17849e-20
-9.06364e-20
-8.94931e-20
-8.8355e-20
-8.72221e-20
-8.60945e-20
-8.49721e-20
-8.3855e-20
-8.27432e-20
-8.16366e-20
-8.05353e-20
-7.94393e-20
-7.83486e-20
-7.72633e-20
-7.61833e-20
-7.51086e-20
-7.40392e-20
-7.29752e-20
-7.19166e-20
-7.08634e-20
-6.98155e-20
-6.8773e-20
-6.77359e-20
-6.67042e-20
-6.56778e-20
-6.46569e-20
-6.36414e-20
-6.26313e-20
-6.16267e-20
-6.06274e-20
-5.96335e-20
-5.8645e-20
-5.7662e-20
-5.66843e-20
-5.57121e-20
-5.47452e-20
-5.37837e-20
-5.28275e-20
-5.18767e-20
-5.09313e-20
-4.99912e-20
-4.90564e-20
-4.81269e-20
-4.72026e-20
-4.62836e-20
-4.53699e-20
-4.44613e-20
-4.35579e-20
-4.26597e-20
-4.17665e-20
-4.08784e-20
-3.99954e-20
-3.91174e-20
-3.82443e-20
-3.73761e-20
-3.65128e-20
-3.56543e-20
-3.48006e-20
-3.39515e-20
-3.31072e-20
-3.22674e-20
-3.14322e-20
-3.06014e-20
-2.9775e-20
-2.8953e-20
-2.81352e-20
-2.73216e-20
-2.65122e-20
-2.57067e-20
-2.49052e-20
-2.41076e-20
-2.33137e-20
-2.25236e-20
-2.1737e-20
-2.09539e-20
-2.01742e-20
-1.93979e-20
-1.86247e-20
-1.78546e-20
-1.70875e-20
-1.63234e-20
-1.55619e-20
-1.48032e-20
-1.4047e-20
-1.32932e-20
-1.25417e-20
-1.17924e-20
-1.10452e-20
-1.03e-20
-9.55655e-21
-8.81483e-21
-8.07468e-21
-7.33599e-21
-6.59861e-21
-5.86242e-21
-5.12729e-21
-4.39309e-21
-3.65969e-21
-2.92695e-21
-2.19474e-21
-1.46293e-21
-7.31392e-22
)
;

boundaryField
{
    top_wall
    {
        type            calculated;
        value           uniform 0;
    }
    inlet
    {
        type            cyclic;
        value           nonuniform List<scalar> 
1000
(
-1.14003e-05
-3.41552e-05
-5.68646e-05
-7.95283e-05
-0.000102146
-0.000124719
-0.000147246
-0.000169727
-0.000192163
-0.000214553
-0.000236898
-0.000259197
-0.00028145
-0.000303658
-0.00032582
-0.000347936
-0.000370007
-0.000392032
-0.000414012
-0.000435946
-0.000457835
-0.000479678
-0.000501475
-0.000523227
-0.000544933
-0.000566593
-0.000588208
-0.000609778
-0.000631301
-0.000652779
-0.000674212
-0.000695599
-0.00071694
-0.000738236
-0.000759486
-0.00078069
-0.000801849
-0.000822962
-0.00084403
-0.000865052
-0.000886029
-0.000906959
-0.000927845
-0.000948684
-0.000969478
-0.000990227
-0.00101093
-0.00103159
-0.0010522
-0.00107276
-0.00109329
-0.00111376
-0.00113419
-0.00115457
-0.00117491
-0.0011952
-0.00121545
-0.00123565
-0.00125581
-0.00127592
-0.00129598
-0.001316
-0.00133597
-0.0013559
-0.00137578
-0.00139562
-0.00141541
-0.00143516
-0.00145485
-0.00147451
-0.00149412
-0.00151368
-0.0015332
-0.00155267
-0.00157209
-0.00159147
-0.00161081
-0.0016301
-0.00164934
-0.00166854
-0.00168769
-0.0017068
-0.00172586
-0.00174488
-0.00176385
-0.00178277
-0.00180165
-0.00182048
-0.00183927
-0.00185801
-0.00187671
-0.00189536
-0.00191396
-0.00193252
-0.00195104
-0.0019695
-0.00198793
-0.0020063
-0.00202464
-0.00204292
-0.00206116
-0.00207936
-0.00209751
-0.00211561
-0.00213367
-0.00215168
-0.00216965
-0.00218757
-0.00220544
-0.00222327
-0.00224106
-0.00225879
-0.00227649
-0.00229414
-0.00231174
-0.00232929
-0.0023468
-0.00236427
-0.00238169
-0.00239906
-0.00241639
-0.00243367
-0.00245091
-0.0024681
-0.00248525
-0.00250235
-0.0025194
-0.00253641
-0.00255337
-0.00257029
-0.00258716
-0.00260399
-0.00262077
-0.00263751
-0.0026542
-0.00267084
-0.00268744
-0.00270399
-0.0027205
-0.00273696
-0.00275338
-0.00276975
-0.00278607
-0.00280235
-0.00281858
-0.00283477
-0.00285091
-0.00286701
-0.00288306
-0.00289907
-0.00291503
-0.00293094
-0.00294681
-0.00296263
-0.00297841
-0.00299414
-0.00300983
-0.00302547
-0.00304107
-0.00305662
-0.00307212
-0.00308758
-0.00310299
-0.00311836
-0.00313368
-0.00314895
-0.00316419
-0.00317937
-0.00319451
-0.0032096
-0.00322465
-0.00323965
-0.00325461
-0.00326952
-0.00328439
-0.00329921
-0.00331398
-0.00332871
-0.00334339
-0.00335803
-0.00337262
-0.00338717
-0.00340167
-0.00341612
-0.00343053
-0.0034449
-0.00345921
-0.00347349
-0.00348771
-0.00350189
-0.00351603
-0.00353012
-0.00354417
-0.00355816
-0.00357212
-0.00358603
-0.00359989
-0.0036137
-0.00362748
-0.0036412
-0.00365488
-0.00366851
-0.0036821
-0.00369565
-0.00370914
-0.00372259
-0.003736
-0.00374936
-0.00376268
-0.00377595
-0.00378917
-0.00380235
-0.00381548
-0.00382857
-0.00384161
-0.0038546
-0.00386755
-0.00388046
-0.00389332
-0.00390613
-0.0039189
-0.00393162
-0.0039443
-0.00395693
-0.00396951
-0.00398205
-0.00399455
-0.00400699
-0.0040194
-0.00403175
-0.00404407
-0.00405633
-0.00406855
-0.00408073
-0.00409286
-0.00410494
-0.00411698
-0.00412897
-0.00414092
-0.00415282
-0.00416467
-0.00417648
-0.00418825
-0.00419997
-0.00421164
-0.00422327
-0.00423485
-0.00424639
-0.00425788
-0.00426932
-0.00428072
-0.00429207
-0.00430338
-0.00431465
-0.00432586
-0.00433703
-0.00434816
-0.00435924
-0.00437027
-0.00438126
-0.00439221
-0.00440311
-0.00441396
-0.00442476
-0.00443553
-0.00444624
-0.00445691
-0.00446753
-0.00447811
-0.00448865
-0.00449913
-0.00450958
-0.00451997
-0.00453032
-0.00454063
-0.00455089
-0.0045611
-0.00457127
-0.00458139
-0.00459147
-0.0046015
-0.00461149
-0.00462143
-0.00463132
-0.00464117
-0.00465097
-0.00466073
-0.00467044
-0.00468011
-0.00468973
-0.00469931
-0.00470884
-0.00471832
-0.00472776
-0.00473715
-0.0047465
-0.0047558
-0.00476506
-0.00477427
-0.00478343
-0.00479255
-0.00480163
-0.00481065
-0.00481964
-0.00482857
-0.00483746
-0.00484631
-0.00485511
-0.00486387
-0.00487257
-0.00488124
-0.00488986
-0.00489843
-0.00490695
-0.00491544
-0.00492387
-0.00493226
-0.0049406
-0.0049489
-0.00495716
-0.00496536
-0.00497352
-0.00498164
-0.00498971
-0.00499774
-0.00500572
-0.00501365
-0.00502154
-0.00502938
-0.00503718
-0.00504493
-0.00505263
-0.00506029
-0.00506791
-0.00507548
-0.005083
-0.00509048
-0.00509791
-0.0051053
-0.00511264
-0.00511993
-0.00512718
-0.00513439
-0.00514155
-0.00514866
-0.00515573
-0.00516275
-0.00516973
-0.00517666
-0.00518354
-0.00519038
-0.00519717
-0.00520392
-0.00521062
-0.00521728
-0.00522389
-0.00523046
-0.00523698
-0.00524345
-0.00524988
-0.00525627
-0.0052626
-0.0052689
-0.00527514
-0.00528134
-0.0052875
-0.00529361
-0.00529967
-0.00530569
-0.00531166
-0.00531759
-0.00532347
-0.00532931
-0.0053351
-0.00534085
-0.00534654
-0.0053522
-0.00535781
-0.00536337
-0.00536889
-0.00537436
-0.00537978
-0.00538516
-0.0053905
-0.00539579
-0.00540103
-0.00540623
-0.00541138
-0.00541649
-0.00542155
-0.00542656
-0.00543153
-0.00543646
-0.00544134
-0.00544617
-0.00545096
-0.0054557
-0.0054604
-0.00546505
-0.00546965
-0.00547421
-0.00547872
-0.00548319
-0.00548762
-0.00549199
-0.00549632
-0.00550061
-0.00550485
-0.00550905
-0.00551319
-0.0055173
-0.00552136
-0.00552537
-0.00552934
-0.00553326
-0.00553713
-0.00554096
-0.00554475
-0.00554848
-0.00555218
-0.00555583
-0.00555943
-0.00556298
-0.00556649
-0.00556996
-0.00557338
-0.00557675
-0.00558008
-0.00558336
-0.0055866
-0.00558979
-0.00559294
-0.00559604
-0.00559909
-0.0056021
-0.00560507
-0.00560799
-0.00561086
-0.00561368
-0.00561647
-0.0056192
-0.00562189
-0.00562454
-0.00562714
-0.00562969
-0.0056322
-0.00563466
-0.00563707
-0.00563945
-0.00564177
-0.00564405
-0.00564628
-0.00564847
-0.00565062
-0.00565271
-0.00565477
-0.00565677
-0.00565873
-0.00566065
-0.00566252
-0.00566434
-0.00566612
-0.00566785
-0.00566954
-0.00567118
-0.00567278
-0.00567433
-0.00567583
-0.00567729
-0.0056787
-0.00568007
-0.00568139
-0.00568267
-0.0056839
-0.00568509
-0.00568623
-0.00568732
-0.00568837
-0.00568937
-0.00569033
-0.00569124
-0.00569211
-0.00569293
-0.0056937
-0.00569443
-0.00569512
-0.00569575
-0.00569635
-0.00569689
-0.0056974
-0.00569785
-0.00569826
-0.00569863
-0.00569895
-0.00569922
-0.00569945
-0.00569963
-0.00569977
-0.00569986
-0.0056999
-0.0056999
-0.00569986
-0.00569977
-0.00569963
-0.00569945
-0.00569922
-0.00569895
-0.00569863
-0.00569826
-0.00569785
-0.0056974
-0.00569689
-0.00569635
-0.00569575
-0.00569512
-0.00569443
-0.0056937
-0.00569293
-0.00569211
-0.00569124
-0.00569033
-0.00568937
-0.00568837
-0.00568732
-0.00568623
-0.00568509
-0.0056839
-0.00568267
-0.00568139
-0.00568007
-0.0056787
-0.00567729
-0.00567583
-0.00567433
-0.00567278
-0.00567118
-0.00566954
-0.00566785
-0.00566612
-0.00566434
-0.00566252
-0.00566065
-0.00565873
-0.00565677
-0.00565477
-0.00565271
-0.00565062
-0.00564847
-0.00564628
-0.00564405
-0.00564177
-0.00563945
-0.00563707
-0.00563466
-0.0056322
-0.00562969
-0.00562714
-0.00562454
-0.00562189
-0.0056192
-0.00561647
-0.00561368
-0.00561086
-0.00560799
-0.00560507
-0.0056021
-0.00559909
-0.00559604
-0.00559294
-0.00558979
-0.0055866
-0.00558336
-0.00558008
-0.00557675
-0.00557338
-0.00556996
-0.00556649
-0.00556298
-0.00555943
-0.00555583
-0.00555218
-0.00554848
-0.00554475
-0.00554096
-0.00553713
-0.00553326
-0.00552934
-0.00552537
-0.00552136
-0.0055173
-0.00551319
-0.00550905
-0.00550485
-0.00550061
-0.00549632
-0.00549199
-0.00548762
-0.00548319
-0.00547872
-0.00547421
-0.00546965
-0.00546505
-0.0054604
-0.0054557
-0.00545096
-0.00544617
-0.00544134
-0.00543646
-0.00543153
-0.00542656
-0.00542155
-0.00541649
-0.00541138
-0.00540623
-0.00540103
-0.00539579
-0.0053905
-0.00538516
-0.00537978
-0.00537436
-0.00536889
-0.00536337
-0.00535781
-0.0053522
-0.00534654
-0.00534085
-0.0053351
-0.00532931
-0.00532347
-0.00531759
-0.00531166
-0.00530569
-0.00529967
-0.00529361
-0.0052875
-0.00528134
-0.00527514
-0.0052689
-0.0052626
-0.00525627
-0.00524988
-0.00524345
-0.00523698
-0.00523046
-0.00522389
-0.00521728
-0.00521062
-0.00520392
-0.00519717
-0.00519038
-0.00518354
-0.00517666
-0.00516973
-0.00516275
-0.00515573
-0.00514866
-0.00514155
-0.00513439
-0.00512718
-0.00511993
-0.00511264
-0.0051053
-0.00509791
-0.00509048
-0.005083
-0.00507548
-0.00506791
-0.00506029
-0.00505263
-0.00504493
-0.00503718
-0.00502938
-0.00502154
-0.00501365
-0.00500572
-0.00499774
-0.00498971
-0.00498164
-0.00497352
-0.00496536
-0.00495716
-0.0049489
-0.0049406
-0.00493226
-0.00492387
-0.00491544
-0.00490695
-0.00489843
-0.00488986
-0.00488124
-0.00487257
-0.00486387
-0.00485511
-0.00484631
-0.00483746
-0.00482857
-0.00481964
-0.00481065
-0.00480163
-0.00479255
-0.00478343
-0.00477427
-0.00476506
-0.0047558
-0.0047465
-0.00473715
-0.00472776
-0.00471832
-0.00470884
-0.00469931
-0.00468973
-0.00468011
-0.00467044
-0.00466073
-0.00465097
-0.00464117
-0.00463132
-0.00462143
-0.00461149
-0.0046015
-0.00459147
-0.00458139
-0.00457127
-0.0045611
-0.00455089
-0.00454063
-0.00453032
-0.00451997
-0.00450958
-0.00449913
-0.00448865
-0.00447811
-0.00446753
-0.00445691
-0.00444624
-0.00443553
-0.00442476
-0.00441396
-0.00440311
-0.00439221
-0.00438126
-0.00437027
-0.00435924
-0.00434816
-0.00433703
-0.00432586
-0.00431465
-0.00430338
-0.00429207
-0.00428072
-0.00426932
-0.00425788
-0.00424639
-0.00423485
-0.00422327
-0.00421164
-0.00419997
-0.00418825
-0.00417648
-0.00416467
-0.00415282
-0.00414092
-0.00412897
-0.00411698
-0.00410494
-0.00409286
-0.00408073
-0.00406855
-0.00405633
-0.00404407
-0.00403175
-0.0040194
-0.00400699
-0.00399455
-0.00398205
-0.00396951
-0.00395693
-0.0039443
-0.00393162
-0.0039189
-0.00390613
-0.00389332
-0.00388046
-0.00386755
-0.0038546
-0.00384161
-0.00382857
-0.00381548
-0.00380235
-0.00378917
-0.00377595
-0.00376268
-0.00374936
-0.003736
-0.00372259
-0.00370914
-0.00369565
-0.0036821
-0.00366851
-0.00365488
-0.0036412
-0.00362748
-0.0036137
-0.00359989
-0.00358603
-0.00357212
-0.00355816
-0.00354417
-0.00353012
-0.00351603
-0.00350189
-0.00348771
-0.00347349
-0.00345921
-0.0034449
-0.00343053
-0.00341612
-0.00340167
-0.00338717
-0.00337262
-0.00335803
-0.00334339
-0.00332871
-0.00331398
-0.00329921
-0.00328439
-0.00326952
-0.00325461
-0.00323965
-0.00322465
-0.0032096
-0.00319451
-0.00317937
-0.00316418
-0.00314895
-0.00313368
-0.00311836
-0.00310299
-0.00308758
-0.00307212
-0.00305662
-0.00304107
-0.00302547
-0.00300983
-0.00299414
-0.00297841
-0.00296263
-0.00294681
-0.00293094
-0.00291503
-0.00289907
-0.00288306
-0.00286701
-0.00285091
-0.00283477
-0.00281858
-0.00280235
-0.00278607
-0.00276975
-0.00275338
-0.00273696
-0.0027205
-0.00270399
-0.00268744
-0.00267084
-0.0026542
-0.00263751
-0.00262077
-0.00260399
-0.00258716
-0.00257029
-0.00255337
-0.00253641
-0.0025194
-0.00250235
-0.00248525
-0.0024681
-0.00245091
-0.00243367
-0.00241639
-0.00239906
-0.00238169
-0.00236427
-0.0023468
-0.00232929
-0.00231174
-0.00229414
-0.00227649
-0.00225879
-0.00224106
-0.00222327
-0.00220544
-0.00218757
-0.00216965
-0.00215168
-0.00213367
-0.00211561
-0.00209751
-0.00207936
-0.00206116
-0.00204292
-0.00202464
-0.0020063
-0.00198793
-0.0019695
-0.00195104
-0.00193252
-0.00191396
-0.00189536
-0.00187671
-0.00185801
-0.00183927
-0.00182048
-0.00180165
-0.00178277
-0.00176385
-0.00174488
-0.00172586
-0.0017068
-0.00168769
-0.00166854
-0.00164934
-0.0016301
-0.00161081
-0.00159147
-0.00157209
-0.00155267
-0.0015332
-0.00151368
-0.00149412
-0.00147451
-0.00145485
-0.00143516
-0.00141541
-0.00139562
-0.00137578
-0.0013559
-0.00133597
-0.001316
-0.00129598
-0.00127592
-0.00125581
-0.00123565
-0.00121545
-0.0011952
-0.00117491
-0.00115457
-0.00113419
-0.00111376
-0.00109329
-0.00107276
-0.0010522
-0.00103159
-0.00101093
-0.000990227
-0.000969478
-0.000948684
-0.000927845
-0.000906959
-0.000886029
-0.000865052
-0.00084403
-0.000822962
-0.000801849
-0.00078069
-0.000759486
-0.000738236
-0.00071694
-0.000695599
-0.000674212
-0.000652779
-0.000631301
-0.000609778
-0.000588208
-0.000566593
-0.000544933
-0.000523227
-0.000501475
-0.000479678
-0.000457835
-0.000435946
-0.000414012
-0.000392032
-0.000370007
-0.000347936
-0.00032582
-0.000303658
-0.00028145
-0.000259197
-0.000236898
-0.000214553
-0.000192163
-0.000169727
-0.000147246
-0.000124719
-0.000102146
-7.95283e-05
-5.68646e-05
-3.41552e-05
-1.14003e-05
)
;
    }
    bot_wall
    {
        type            calculated;
        value           uniform 0;
    }
    outlet
    {
        type            cyclic;
        value           nonuniform List<scalar> 
1000
(
1.14003e-05
3.41552e-05
5.68646e-05
7.95283e-05
0.000102146
0.000124719
0.000147246
0.000169727
0.000192163
0.000214553
0.000236898
0.000259197
0.00028145
0.000303658
0.00032582
0.000347936
0.000370007
0.000392032
0.000414012
0.000435946
0.000457835
0.000479678
0.000501475
0.000523227
0.000544933
0.000566593
0.000588208
0.000609778
0.000631301
0.000652779
0.000674212
0.000695599
0.00071694
0.000738236
0.000759486
0.00078069
0.000801849
0.000822962
0.00084403
0.000865052
0.000886029
0.000906959
0.000927845
0.000948684
0.000969478
0.000990227
0.00101093
0.00103159
0.0010522
0.00107276
0.00109329
0.00111376
0.00113419
0.00115457
0.00117491
0.0011952
0.00121545
0.00123565
0.00125581
0.00127592
0.00129598
0.001316
0.00133597
0.0013559
0.00137578
0.00139562
0.00141541
0.00143516
0.00145485
0.00147451
0.00149412
0.00151368
0.0015332
0.00155267
0.00157209
0.00159147
0.00161081
0.0016301
0.00164934
0.00166854
0.00168769
0.0017068
0.00172586
0.00174488
0.00176385
0.00178277
0.00180165
0.00182048
0.00183927
0.00185801
0.00187671
0.00189536
0.00191396
0.00193252
0.00195104
0.0019695
0.00198793
0.0020063
0.00202464
0.00204292
0.00206116
0.00207936
0.00209751
0.00211561
0.00213367
0.00215168
0.00216965
0.00218757
0.00220544
0.00222327
0.00224106
0.00225879
0.00227649
0.00229414
0.00231174
0.00232929
0.0023468
0.00236427
0.00238169
0.00239906
0.00241639
0.00243367
0.00245091
0.0024681
0.00248525
0.00250235
0.0025194
0.00253641
0.00255337
0.00257029
0.00258716
0.00260399
0.00262077
0.00263751
0.0026542
0.00267084
0.00268744
0.00270399
0.0027205
0.00273696
0.00275338
0.00276975
0.00278607
0.00280235
0.00281858
0.00283477
0.00285091
0.00286701
0.00288306
0.00289907
0.00291503
0.00293094
0.00294681
0.00296263
0.00297841
0.00299414
0.00300983
0.00302547
0.00304107
0.00305662
0.00307212
0.00308758
0.00310299
0.00311836
0.00313368
0.00314895
0.00316419
0.00317937
0.00319451
0.0032096
0.00322465
0.00323965
0.00325461
0.00326952
0.00328439
0.00329921
0.00331398
0.00332871
0.00334339
0.00335803
0.00337262
0.00338717
0.00340167
0.00341612
0.00343053
0.0034449
0.00345921
0.00347349
0.00348771
0.00350189
0.00351603
0.00353012
0.00354417
0.00355816
0.00357212
0.00358603
0.00359989
0.0036137
0.00362748
0.0036412
0.00365488
0.00366851
0.0036821
0.00369565
0.00370914
0.00372259
0.003736
0.00374936
0.00376268
0.00377595
0.00378917
0.00380235
0.00381548
0.00382857
0.00384161
0.0038546
0.00386755
0.00388046
0.00389332
0.00390613
0.0039189
0.00393162
0.0039443
0.00395693
0.00396951
0.00398205
0.00399455
0.00400699
0.0040194
0.00403175
0.00404407
0.00405633
0.00406855
0.00408073
0.00409286
0.00410494
0.00411698
0.00412897
0.00414092
0.00415282
0.00416467
0.00417648
0.00418825
0.00419997
0.00421164
0.00422327
0.00423485
0.00424639
0.00425788
0.00426932
0.00428072
0.00429207
0.00430338
0.00431465
0.00432586
0.00433703
0.00434816
0.00435924
0.00437027
0.00438126
0.00439221
0.00440311
0.00441396
0.00442476
0.00443553
0.00444624
0.00445691
0.00446753
0.00447811
0.00448865
0.00449913
0.00450958
0.00451997
0.00453032
0.00454063
0.00455089
0.0045611
0.00457127
0.00458139
0.00459147
0.0046015
0.00461149
0.00462143
0.00463132
0.00464117
0.00465097
0.00466073
0.00467044
0.00468011
0.00468973
0.00469931
0.00470884
0.00471832
0.00472776
0.00473715
0.0047465
0.0047558
0.00476506
0.00477427
0.00478343
0.00479255
0.00480163
0.00481065
0.00481964
0.00482857
0.00483746
0.00484631
0.00485511
0.00486387
0.00487257
0.00488124
0.00488986
0.00489843
0.00490695
0.00491544
0.00492387
0.00493226
0.0049406
0.0049489
0.00495716
0.00496536
0.00497352
0.00498164
0.00498971
0.00499774
0.00500572
0.00501365
0.00502154
0.00502938
0.00503718
0.00504493
0.00505263
0.00506029
0.00506791
0.00507548
0.005083
0.00509048
0.00509791
0.0051053
0.00511264
0.00511993
0.00512718