/*--------------------------------*- C++ -*----------------------------------*\
| =========                 |                                                 |
| \\      /  F ield         | OpenFOAM: The Open Source CFD Toolbox           |
|  \\    /   O peration     | Version:  2406                                  |
|   \\  /    A nd           | Website:  www.openfoam.com                      |
|    \\/     M anipulation  |                                                 |
\*---------------------------------------------------------------------------*/
FoamFile
{
    version     2.0;
    format      ascii;
    arch        "LSB;label=32;scalar=64";
    class       volVectorField;
    location    "100";
    object      U;
}
// * * * * * * * * * * * * * * * * * * * * * * * * * * * * * * * * * * * * * //

dimensions      [0 1 -1 0 0 0 0];

internalField   nonuniform List<vector> 
1000
(
(0.114003 -6.29862e-19 0)
(0.341552 -9.90305e-18 0)
(0.568646 -6.92971e-18 0)
(0.795283 -6.79666e-18 0)
(1.02146 -6.82459e-18 0)
(1.24719 -6.98625e-18 0)
(1.47246 -7.05767e-18 0)
(1.69727 -6.96221e-18 0)
(1.92163 -6.92694e-18 0)
(2.14553 -6.84745e-18 0)
(2.36898 -6.74692e-18 0)
(2.59197 -6.83751e-18 0)
(2.8145 -6.86509e-18 0)
(3.03658 -6.94157e-18 0)
(3.2582 -6.97144e-18 0)
(3.47936 -6.97728e-18 0)
(3.70007 -7.17626e-18 0)
(3.92032 -7.27722e-18 0)
(4.14012 -7.33978e-18 0)
(4.35946 -7.37628e-18 0)
(4.57835 -7.39611e-18 0)
(4.79678 -7.40622e-18 0)
(5.01475 -7.41154e-18 0)
(5.23227 -7.41545e-18 0)
(5.44933 -7.42013e-18 0)
(5.66593 -7.42691e-18 0)
(5.88208 -7.43647e-18 0)
(6.09778 -7.44907e-18 0)
(6.31301 -7.46468e-18 0)
(6.52779 -7.48311e-18 0)
(6.74212 -7.50403e-18 0)
(6.95599 -7.52712e-18 0)
(7.1694 -7.55199e-18 0)
(7.38236 -7.57831e-18 0)
(7.59486 -7.60575e-18 0)
(7.8069 -7.63402e-18 0)
(8.01849 -7.66289e-18 0)
(8.22962 -7.69212e-18 0)
(8.4403 -7.72156e-18 0)
(8.65052 -7.75104e-18 0)
(8.86029 -7.78046e-18 0)
(9.06959 -7.80971e-18 0)
(9.27845 -7.83872e-18 0)
(9.48684 -7.86744e-18 0)
(9.69478 -7.89581e-18 0)
(9.90227 -7.92382e-18 0)
(10.1093 -7.95142e-18 0)
(10.3159 -7.9786e-18 0)
(10.522 -8.00534e-18 0)
(10.7276 -8.03164e-18 0)
(10.9329 -8.05748e-18 0)
(11.1376 -8.08285e-18 0)
(11.3419 -8.10774e-18 0)
(11.5457 -8.13214e-18 0)
(11.7491 -8.15603e-18 0)
(11.952 -8.1794e-18 0)
(12.1545 -8.20224e-18 0)
(12.3565 -8.22452e-18 0)
(12.5581 -8.24623e-18 0)
(12.7592 -8.26734e-18 0)
(12.9598 -8.28784e-18 0)
(13.16 -8.30768e-18 0)
(13.3597 -8.32685e-18 0)
(13.559 -8.34531e-18 0)
(13.7578 -8.36304e-18 0)
(13.9562 -8.38e-18 0)
(14.1541 -8.39615e-18 0)
(14.3516 -8.41147e-18 0)
(14.5485 -8.42592e-18 0)
(14.7451 -8.43946e-18 0)
(14.9412 -8.45206e-18 0)
(15.1368 -8.46368e-18 0)
(15.332 -8.4743e-18 0)
(15.5267 -8.48387e-18 0)
(15.7209 -8.49238e-18 0)
(15.9147 -8.49979e-18 0)
(16.1081 -8.50609e-18 0)
(16.301 -8.51125e-18 0)
(16.4934 -8.51525e-18 0)
(16.6854 -8.51808e-18 0)
(16.8769 -8.51974e-18 0)
(17.068 -8.52023e-18 0)
(17.2586 -8.51956e-18 0)
(17.4488 -8.51773e-18 0)
(17.6385 -8.51478e-18 0)
(17.8277 -8.51074e-18 0)
(18.0165 -8.50565e-18 0)
(18.2048 -8.49956e-18 0)
(18.3927 -8.49256e-18 0)
(18.5801 -8.48471e-18 0)
(18.7671 -8.47612e-18 0)
(18.9536 -8.46692e-18 0)
(19.1396 -8.45723e-18 0)
(19.3252 -8.44722e-18 0)
(19.5104 -8.43707e-18 0)
(19.695 -8.42701e-18 0)
(19.8793 -8.41727e-18 0)
(20.063 -8.40815e-18 0)
(20.2464 -8.39997e-18 0)
(20.4292 -8.39311e-18 0)
(20.6116 -8.38801e-18 0)
(20.7936 -8.38515e-18 0)
(20.9751 -8.38512e-18 0)
(21.1561 -8.38857e-18 0)
(21.3367 -8.39626e-18 0)
(21.5168 -8.40906e-18 0)
(21.6965 -8.42798e-18 0)
(21.8757 -8.45418e-18 0)
(22.0544 -8.489e-18 0)
(22.2327 -8.53397e-18 0)
(22.4106 -8.59087e-18 0)
(22.5879 -8.66174e-18 0)
(22.7649 -8.74892e-18 0)
(22.9414 -8.85512e-18 0)
(23.1174 -8.98346e-18 0)
(23.2929 -9.13753e-18 0)
(23.468 -9.32148e-18 0)
(23.6427 -9.54017e-18 0)
(23.8169 -9.79926e-18 0)
(23.9906 -1.00843e-17 0)
(24.1639 -1.0401e-17 0)
(24.3367 -1.07543e-17 0)
(24.5091 -1.11481e-17 0)
(24.681 -1.1587e-17 0)
(24.8525 -1.20765e-17 0)
(25.0235 -1.26223e-17 0)
(25.194 -1.32304e-17 0)
(25.3641 -1.39071e-17 0)
(25.5337 -1.46587e-17 0)
(25.7029 -1.54908e-17 0)
(25.8716 -1.64086e-17 0)
(26.0399 -1.74152e-17 0)
(26.2077 -1.8493e-17 0)
(26.3751 -1.96423e-17 0)
(26.542 -2.08589e-17 0)
(26.7084 -2.2133e-17 0)
(26.8744 -2.34465e-17 0)
(27.0399 -2.47482e-17 0)
(27.205 -2.60322e-17 0)
(27.3696 -2.70356e-17 0)
(27.5338 -2.69732e-17 0)
(27.6975 -2.69145e-17 0)
(27.8607 -2.79272e-17 0)
(28.0235 -2.92246e-17 0)
(28.1858 -3.05426e-17 0)
(28.3477 -3.18745e-17 0)
(28.5091 -3.31688e-17 0)
(28.6701 -3.44072e-17 0)
(28.8306 -3.55796e-17 0)
(28.9907 -3.66818e-17 0)
(29.1503 -3.77139e-17 0)
(29.3094 -3.86583e-17 0)
(29.4681 -3.95181e-17 0)
(29.6263 -4.02984e-17 0)
(29.7841 -4.1005e-17 0)
(29.9414 -4.16442e-17 0)
(30.0983 -4.22225e-17 0)
(30.2547 -4.27465e-17 0)
(30.4107 -4.32224e-17 0)
(30.5662 -4.36566e-17 0)
(30.7212 -4.40553e-17 0)
(30.8758 -4.44037e-17 0)
(31.0299 -4.47059e-17 0)
(31.1836 -4.49851e-17 0)
(31.3368 -4.52447e-17 0)
(31.4895 -4.5469e-17 0)
(31.6419 -4.56624e-17 0)
(31.7937 -4.58494e-17 0)
(31.9451 -4.58289e-17 0)
(32.096 -4.55179e-17 0)
(32.2465 -4.61428e-17 0)
(32.3965 -4.86058e-17 0)
(32.5461 -5.12543e-17 0)
(32.6952 -5.24132e-17 0)
(32.8439 -5.28211e-17 0)
(32.9921 -5.32742e-17 0)
(33.1398 -5.37077e-17 0)
(33.2871 -5.41196e-17 0)
(33.4339 -5.45067e-17 0)
(33.5803 -5.48649e-17 0)
(33.7262 -5.51885e-17 0)
(33.8717 -5.54706e-17 0)
(34.0167 -5.57239e-17 0)
(34.1612 -5.59405e-17 0)
(34.3053 -5.61134e-17 0)
(34.449 -5.62345e-17 0)
(34.5921 -5.62946e-17 0)
(34.7349 -5.62838e-17 0)
(34.8771 -5.61917e-17 0)
(35.0189 -5.60074e-17 0)
(35.1603 -5.572e-17 0)
(35.3012 -5.53376e-17 0)
(35.4417 -5.48475e-17 0)
(35.5816 -5.42371e-17 0)
(35.7212 -5.34933e-17 0)
(35.8603 -5.26021e-17 0)
(35.9989 -5.15477e-17 0)
(36.137 -5.03105e-17 0)
(36.2748 -4.88653e-17 0)
(36.412 -4.71998e-17 0)
(36.5488 -4.52732e-17 0)
(36.6851 -4.31824e-17 0)
(36.821 -4.19297e-17 0)
(36.9565 -4.12474e-17 0)
(37.0914 -4.08789e-17 0)
(37.2259 -4.0338e-17 0)
(37.36 -3.91733e-17 0)
(37.4936 -3.82242e-17 0)
(37.6268 -3.73829e-17 0)
(37.7595 -3.66354e-17 0)
(37.8917 -3.59568e-17 0)
(38.0235 -3.53295e-17 0)
(38.1548 -3.47424e-17 0)
(38.2857 -3.41885e-17 0)
(38.4161 -3.36636e-17 0)
(38.546 -3.3165e-17 0)
(38.6755 -3.2691e-17 0)
(38.8046 -3.22402e-17 0)
(38.9332 -3.18117e-17 0)
(39.0613 -3.14046e-17 0)
(39.189 -3.10178e-17 0)
(39.3162 -3.06503e-17 0)
(39.443 -3.0301e-17 0)
(39.5693 -2.99688e-17 0)
(39.6951 -2.96527e-17 0)
(39.8205 -2.93518e-17 0)
(39.9455 -2.90652e-17 0)
(40.0699 -2.87923e-17 0)
(40.194 -2.85324e-17 0)
(40.3175 -2.82849e-17 0)
(40.4407 -2.80492e-17 0)
(40.5633 -2.78249e-17 0)
(40.6855 -2.76116e-17 0)
(40.8073 -2.74089e-17 0)
(40.9286 -2.72162e-17 0)
(41.0494 -2.70333e-17 0)
(41.1698 -2.68597e-17 0)
(41.2897 -2.6695e-17 0)
(41.4092 -2.65388e-17 0)
(41.5282 -2.63905e-17 0)
(41.6467 -2.62498e-17 0)
(41.7648 -2.61162e-17 0)
(41.8825 -2.59893e-17 0)
(41.9997 -2.58685e-17 0)
(42.1164 -2.57534e-17 0)
(42.2327 -2.56435e-17 0)
(42.3485 -2.55384e-17 0)
(42.4639 -2.54377e-17 0)
(42.5788 -2.53409e-17 0)
(42.6932 -2.52476e-17 0)
(42.8072 -2.51574e-17 0)
(42.9207 -2.507e-17 0)
(43.0338 -2.49849e-17 0)
(43.1465 -2.4902e-17 0)
(43.2586 -2.48207e-17 0)
(43.3703 -2.47409e-17 0)
(43.4816 -2.46623e-17 0)
(43.5924 -2.45847e-17 0)
(43.7027 -2.45077e-17 0)
(43.8126 -2.44313e-17 0)
(43.9221 -2.43553e-17 0)
(44.0311 -2.42794e-17 0)
(44.1396 -2.42036e-17 0)
(44.2476 -2.41277e-17 0)
(44.3553 -2.40516e-17 0)
(44.4624 -2.39752e-17 0)
(44.5691 -2.38984e-17 0)
(44.6753 -2.38212e-17 0)
(44.7811 -2.37435e-17 0)
(44.8865 -2.36653e-17 0)
(44.9913 -2.35866e-17 0)
(45.0958 -2.35072e-17 0)
(45.1997 -2.34273e-17 0)
(45.3032 -2.33468e-17 0)
(45.4063 -2.32656e-17 0)
(45.5089 -2.31839e-17 0)
(45.611 -2.31016e-17 0)
(45.7127 -2.30187e-17 0)
(45.8139 -2.29352e-17 0)
(45.9147 -2.28513e-17 0)
(46.015 -2.27668e-17 0)
(46.1149 -2.26818e-17 0)
(46.2143 -2.25964e-17 0)
(46.3132 -2.25106e-17 0)
(46.4117 -2.24244e-17 0)
(46.5097 -2.23378e-17 0)
(46.6073 -2.22509e-17 0)
(46.7044 -2.21637e-17 0)
(46.8011 -2.20763e-17 0)
(46.8973 -2.19886e-17 0)
(46.9931 -2.19008e-17 0)
(47.0884 -2.18128e-17 0)
(47.1832 -2.17247e-17 0)
(47.2776 -2.16365e-17 0)
(47.3715 -2.15482e-17 0)
(47.465 -2.14599e-17 0)
(47.558 -2.13716e-17 0)
(47.6506 -2.12833e-17 0)
(47.7427 -2.11951e-17 0)
(47.8343 -2.11069e-17 0)
(47.9255 -2.10189e-17 0)
(48.0163 -2.0931e-17 0)
(48.1065 -2.08432e-17 0)
(48.1964 -2.07556e-17 0)
(48.2857 -2.06681e-17 0)
(48.3746 -2.05809e-17 0)
(48.4631 -2.0494e-17 0)
(48.5511 -2.04072e-17 0)
(48.6387 -2.03207e-17 0)
(48.7257 -2.02345e-17 0)
(48.8124 -2.01486e-17 0)
(48.8986 -2.0063e-17 0)
(48.9843 -1.99777e-17 0)
(49.0695 -1.98927e-17 0)
(49.1544 -1.98081e-17 0)
(49.2387 -1.97238e-17 0)
(49.3226 -1.96398e-17 0)
(49.406 -1.95563e-17 0)
(49.489 -1.94731e-17 0)
(49.5716 -1.93902e-17 0)
(49.6536 -1.93078e-17 0)
(49.7352 -1.92257e-17 0)
(49.8164 -1.9144e-17 0)
(49.8971 -1.90628e-17 0)
(49.9774 -1.89819e-17 0)
(50.0572 -1.89014e-17 0)
(50.1365 -1.88214e-17 0)
(50.2154 -1.87417e-17 0)
(50.2938 -1.86625e-17 0)
(50.3718 -1.85836e-17 0)
(50.4493 -1.85052e-17 0)
(50.5263 -1.84272e-17 0)
(50.6029 -1.83496e-17 0)
(50.6791 -1.82724e-17 0)
(50.7548 -1.81956e-17 0)
(50.83 -1.81193e-17 0)
(50.9048 -1.80433e-17 0)
(50.9791 -1.79678e-17 0)
(51.053 -1.78926e-17 0)
(51.1264 -1.78179e-17 0)
(51.1993 -1.77436e-17 0)
(51.2718 -1.76697e-17 0)
(51.3439 -1.75962e-17 0)
(51.4155 -1.7523e-17 0)
(51.4866 -1.74503e-17 0)
(51.5573 -1.7378e-17 0)
(51.6275 -1.73061e-17 0)
(51.6973 -1.72345e-17 0)
(51.7666 -1.71634e-17 0)
(51.8354 -1.70926e-17 0)
(51.9038 -1.70223e-17 0)
(51.9717 -1.69523e-17 0)
(52.0392 -1.68827e-17 0)
(52.1062 -1.68134e-17 0)
(52.1728 -1.67446e-17 0)
(52.2389 -1.66761e-17 0)
(52.3046 -1.66079e-17 0)
(52.3698 -1.65402e-17 0)
(52.4345 -1.64728e-17 0)
(52.4988 -1.64057e-17 0)
(52.5627 -1.63391e-17 0)
(52.626 -1.62727e-17 0)
(52.689 -1.62068e-17 0)
(52.7514 -1.61412e-17 0)
(52.8134 -1.60759e-17 0)
(52.875 -1.6011e-17 0)
(52.9361 -1.59464e-17 0)
(52.9967 -1.58821e-17 0)
(53.0569 -1.58182e-17 0)
(53.1166 -1.57547e-17 0)
(53.1759 -1.56915e-17 0)
(53.2347 -1.56286e-17 0)
(53.2931 -1.5566e-17 0)
(53.351 -1.55037e-17 0)
(53.4085 -1.54418e-17 0)
(53.4654 -1.53802e-17 0)
(53.522 -1.5319e-17 0)
(53.5781 -1.5258e-17 0)
(53.6337 -1.51974e-17 0)
(53.6889 -1.5137e-17 0)
(53.7436 -1.5077e-17 0)
(53.7978 -1.50173e-17 0)
(53.8516 -1.49579e-17 0)
(53.905 -1.48989e-17 0)
(53.9579 -1.48401e-17 0)
(54.0103 -1.47816e-17 0)
(54.0623 -1.47234e-17 0)
(54.1138 -1.46656e-17 0)
(54.1649 -1.4608e-17 0)
(54.2155 -1.45507e-17 0)
(54.2656 -1.44937e-17 0)
(54.3153 -1.4437e-17 0)
(54.3646 -1.43806e-17 0)
(54.4134 -1.43245e-17 0)
(54.4617 -1.42687e-17 0)
(54.5096 -1.42131e-17 0)
(54.557 -1.41579e-17 0)
(54.604 -1.41029e-17 0)
(54.6505 -1.40482e-17 0)
(54.6965 -1.39938e-17 0)
(54.7421 -1.39397e-17 0)
(54.7872 -1.38858e-17 0)
(54.8319 -1.38322e-17 0)
(54.8762 -1.37789e-17 0)
(54.9199 -1.37259e-17 0)
(54.9632 -1.36731e-17 0)
(55.0061 -1.36206e-17 0)
(55.0485 -1.35683e-17 0)
(55.0905 -1.35164e-17 0)
(55.1319 -1.34647e-17 0)
(55.173 -1.34132e-17 0)
(55.2136 -1.3362e-17 0)
(55.2537 -1.33111e-17 0)
(55.2934 -1.32604e-17 0)
(55.3326 -1.321e-17 0)
(55.3713 -1.31598e-17 0)
(55.4096 -1.31099e-17 0)
(55.4475 -1.30602e-17 0)
(55.4848 -1.30108e-17 0)
(55.5218 -1.29616e-17 0)
(55.5583 -1.29127e-17 0)
(55.5943 -1.2864e-17 0)
(55.6298 -1.28156e-17 0)
(55.6649 -1.27674e-17 0)
(55.6996 -1.27194e-17 0)
(55.7338 -1.26717e-17 0)
(55.7675 -1.26242e-17 0)
(55.8008 -1.2577e-17 0)
(55.8336 -1.25299e-17 0)
(55.866 -1.24831e-17 0)
(55.8979 -1.24366e-17 0)
(55.9294 -1.23902e-17 0)
(55.9604 -1.23441e-17 0)
(55.9909 -1.22982e-17 0)
(56.021 -1.22526e-17 0)
(56.0507 -1.22071e-17 0)
(56.0799 -1.21619e-17 0)
(56.1086 -1.21168e-17 0)
(56.1368 -1.2072e-17 0)
(56.1647 -1.20275e-17 0)
(56.192 -1.19831e-17 0)
(56.2189 -1.19389e-17 0)
(56.2454 -1.18949e-17 0)
(56.2714 -1.18512e-17 0)
(56.2969 -1.18076e-17 0)
(56.322 -1.17643e-17 0)
(56.3466 -1.17211e-17 0)
(56.3707 -1.16782e-17 0)
(56.3945 -1.16354e-17 0)
(56.4177 -1.15928e-17 0)
(56.4405 -1.15505e-17 0)
(56.4628 -1.15083e-17 0)
(56.4847 -1.14663e-17 0)
(56.5062 -1.14245e-17 0)
(56.5271 -1.13829e-17 0)
(56.5477 -1.13415e-17 0)
(56.5677 -1.13002e-17 0)
(56.5873 -1.12592e-17 0)
(56.6065 -1.12183e-17 0)
(56.6252 -1.11776e-17 0)
(56.6434 -1.1137e-17 0)
(56.6612 -1.10967e-17 0)
(56.6785 -1.10565e-17 0)
(56.6954 -1.10165e-17 0)
(56.7118 -1.09766e-17 0)
(56.7278 -1.0937e-17 0)
(56.7433 -1.08974e-17 0)
(56.7583 -1.08581e-17 0)
(56.7729 -1.08189e-17 0)
(56.787 -1.07799e-17 0)
(56.8007 -1.0741e-17 0)
(56.8139 -1.07023e-17 0)
(56.8267 -1.06638e-17 0)
(56.839 -1.06254e-17 0)
(56.8509 -1.05871e-17 0)
(56.8623 -1.0549e-17 0)
(56.8732 -1.05111e-17 0)
(56.8837 -1.04733e-17 0)
(56.8937 -1.04356e-17 0)
(56.9033 -1.03981e-17 0)
(56.9124 -1.03608e-17 0)
(56.9211 -1.03236e-17 0)
(56.9293 -1.02865e-17 0)
(56.937 -1.02495e-17 0)
(56.9443 -1.02127e-17 0)
(56.9512 -1.01761e-17 0)
(56.9575 -1.01395e-17 0)
(56.9635 -1.01031e-17 0)
(56.9689 -1.00669e-17 0)
(56.974 -1.00307e-17 0)
(56.9785 -9.99473e-18 0)
(56.9826 -9.95885e-18 0)
(56.9863 -9.92309e-18 0)
(56.9895 -9.88746e-18 0)
(56.9922 -9.85196e-18 0)
(56.9945 -9.81658e-18 0)
(56.9963 -9.78131e-18 0)
(56.9977 -9.74617e-18 0)
(56.9986 -9.71115e-18 0)
(56.999 -9.67624e-18 0)
(56.999 -9.64141e-18 0)
(56.9986 -9.60665e-18 0)
(56.9977 -9.57201e-18 0)
(56.9963 -9.53748e-18 0)
(56.9945 -9.50306e-18 0)
(56.9922 -9.46875e-18 0)
(56.9895 -9.43455e-18 0)
(56.9863 -9.40045e-18 0)
(56.9826 -9.36647e-18 0)
(56.9785 -9.33258e-18 0)
(56.974 -9.29881e-18 0)
(56.9689 -9.26514e-18 0)
(56.9635 -9.23156e-18 0)
(56.9575 -9.1981e-18 0)
(56.9512 -9.16473e-18 0)
(56.9443 -9.13146e-18 0)
(56.937 -9.09829e-18 0)
(56.9293 -9.06522e-18 0)
(56.9211 -9.03224e-18 0)
(56.9124 -8.99936e-18 0)
(56.9033 -8.96657e-18 0)
(56.8937 -8.93388e-18 0)
(56.8837 -8.90128e-18 0)
(56.8732 -8.86878e-18 0)
(56.8623 -8.83636e-18 0)
(56.8509 -8.80404e-18 0)
(56.839 -8.7718e-18 0)
(56.8267 -8.73966e-18 0)
(56.8139 -8.7076e-18 0)
(56.8007 -8.67563e-18 0)
(56.787 -8.64375e-18 0)
(56.7729 -8.61195e-18 0)
(56.7583 -8.58023e-18 0)
(56.7433 -8.5486e-18 0)
(56.7278 -8.51706e-18 0)
(56.7118 -8.4856e-18 0)
(56.6954 -8.45422e-18 0)
(56.6785 -8.42292e-18 0)
(56.6612 -8.3917e-18 0)
(56.6434 -8.36056e-18 0)
(56.6252 -8.3295e-18 0)
(56.6065 -8.29852e-18 0)
(56.5873 -8.26762e-18 0)
(56.5677 -8.2368e-18 0)
(56.5477 -8.20606e-18 0)
(56.5271 -8.17539e-18 0)
(56.5062 -8.14479e-18 0)
(56.4847 -8.11428e-18 0)
(56.4628 -8.08383e-18 0)
(56.4405 -8.05346e-18 0)
(56.4177 -8.02317e-18 0)
(56.3945 -7.99295e-18 0)
(56.3707 -7.9628e-18 0)
(56.3466 -7.93273e-18 0)
(56.322 -7.90272e-18 0)
(56.2969 -7.87279e-18 0)
(56.2714 -7.84293e-18 0)
(56.2454 -7.81314e-18 0)
(56.2189 -7.78342e-18 0)
(56.192 -7.75377e-18 0)
(56.1647 -7.72419e-18 0)
(56.1368 -7.69468e-18 0)
(56.1086 -7.66524e-18 0)
(56.0799 -7.63587e-18 0)
(56.0507 -7.60656e-18 0)
(56.021 -7.57732e-18 0)
(55.9909 -7.54815e-18 0)
(55.9604 -7.51904e-18 0)
(55.9294 -7.49001e-18 0)
(55.8979 -7.46103e-18 0)
(55.866 -7.43213e-18 0)
(55.8336 -7.40329e-18 0)
(55.8008 -7.37451e-18 0)
(55.7675 -7.3458e-18 0)
(55.7338 -7.31716e-18 0)
(55.6996 -7.28857e-18 0)
(55.6649 -7.26006e-18 0)
(55.6298 -7.2316e-18 0)
(55.5943 -7.20321e-18 0)
(55.5583 -7.17489e-18 0)
(55.5218 -7.14662e-18 0)
(55.4848 -7.11842e-18 0)
(55.4475 -7.09028e-18 0)
(55.4096 -7.06221e-18 0)
(55.3713 -7.03419e-18 0)
(55.3326 -7.00624e-18 0)
(55.2934 -6.97835e-18 0)
(55.2537 -6.95052e-18 0)
(55.2136 -6.92275e-18 0)
(55.173 -6.89504e-18 0)
(55.1319 -6.8674e-18 0)
(55.0905 -6.83981e-18 0)
(55.0485 -6.81229e-18 0)
(55.0061 -6.78482e-18 0)
(54.9632 -6.75742e-18 0)
(54.9199 -6.73007e-18 0)
(54.8762 -6.70279e-18 0)
(54.8319 -6.67556e-18 0)
(54.7872 -6.6484e-18 0)
(54.7421 -6.62129e-18 0)
(54.6965 -6.59424e-18 0)
(54.6505 -6.56726e-18 0)
(54.604 -6.54033e-18 0)
(54.557 -6.51346e-18 0)
(54.5096 -6.48664e-18 0)
(54.4617 -6.45989e-18 0)
(54.4134 -6.4332e-18 0)
(54.3646 -6.40656e-18 0)
(54.3153 -6.37998e-18 0)
(54.2656 -6.35346e-18 0)
(54.2155 -6.327e-18 0)
(54.1649 -6.30059e-18 0)
(54.1138 -6.27424e-18 0)
(54.0623 -6.24795e-18 0)
(54.0103 -6.22172e-18 0)
(53.9579 -6.19555e-18 0)
(53.905 -6.16943e-18 0)
(53.8516 -6.14337e-18 0)
(53.7978 -6.11736e-18 0)
(53.7436 -6.09142e-18 0)
(53.6889 -6.06553e-18 0)
(53.6337 -6.03969e-18 0)
(53.5781 -6.01392e-18 0)
(53.522 -5.9882e-18 0)
(53.4654 -5.96253e-18 0)
(53.4085 -5.93692e-18 0)
(53.351 -5.91137e-18 0)
(53.2931 -5.88588e-18 0)
(53.2347 -5.86044e-18 0)
(53.1759 -5.83506e-18 0)
(53.1166 -5.80973e-18 0)
(53.0569 -5.78446e-18 0)
(52.9967 -5.75925e-18 0)
(52.9361 -5.73409e-18 0)
(52.875 -5.70899e-18 0)
(52.8134 -5.68394e-18 0)
(52.7514 -5.65895e-18 0)
(52.689 -5.63401e-18 0)
(52.626 -5.60913e-18 0)
(52.5627 -5.58431e-18 0)
(52.4988 -5.55954e-18 0)
(52.4345 -5.53482e-18 0)
(52.3698 -5.51016e-18 0)
(52.3046 -5.48556e-18 0)
(52.2389 -5.46101e-18 0)
(52.1728 -5.43652e-18 0)
(52.1062 -5.41208e-18 0)
(52.0392 -5.38769e-18 0)
(51.9717 -5.36337e-18 0)
(51.9038 -5.33909e-18 0)
(51.8354 -5.31487e-18 0)
(51.7666 -5.29071e-18 0)
(51.6973 -5.2666e-18 0)
(51.6275 -5.24254e-18 0)
(51.5573 -5.21854e-18 0)
(51.4866 -5.1946e-18 0)
(51.4155 -5.17071e-18 0)
(51.3439 -5.14687e-18 0)
(51.2718 -5.12309e-18 0)
(51.1993 -5.09936e-18 0)
(51.1264 -5.07569e-18 0)
(51.053 -5.05207e-18 0)
(50.9791 -5.0285e-18 0)
(50.9048 -5.00499e-18 0)
(50.83 -4.98153e-18 0)
(50.7548 -4.95813e-18 0)
(50.6791 -4.93478e-18 0)
(50.6029 -4.91148e-18 0)
(50.5263 -4.88824e-18 0)
(50.4493 -4.86506e-18 0)
(50.3718 -4.84192e-18 0)
(50.2938 -4.81884e-18 0)
(50.2154 -4.79582e-18 0)
(50.1365 -4.77285e-18 0)
(50.0572 -4.74993e-18 0)
(49.9774 -4.72706e-18 0)
(49.8971 -4.70425e-18 0)
(49.8164 -4.68149e-18 0)
(49.7352 -4.65879e-18 0)
(49.6536 -4.63614e-18 0)
(49.5716 -4.61354e-18 0)
(49.489 -4.591e-18 0)
(49.406 -4.56851e-18 0)
(49.3226 -4.54607e-18 0)
(49.2387 -4.52369e-18 0)
(49.1544 -4.50135e-18 0)
(49.0695 -4.47908e-18 0)
(48.9843 -4.45685e-18 0)
(48.8986 -4.43468e-18 0)
(48.8124 -4.41256e-18 0)
(48.7257 -4.3905e-18 0)
(48.6387 -4.36848e-18 0)
(48.5511 -4.34652e-18 0)
(48.4631 -4.32462e-18 0)
(48.3746 -4.30276e-18 0)
(48.2857 -4.28096e-18 0)
(48.1964 -4.25921e-18 0)
(48.1065 -4.23752e-18 0)
(48.0163 -4.21588e-18 0)
(47.9255 -4.19429e-18 0)
(47.8343 -4.17275e-18 0)
(47.7427 -4.15126e-18 0)
(47.6506 -4.12983e-18 0)
(47.558 -4.10845e-18 0)
(47.465 -4.08712e-18 0)
(47.3715 -4.06585e-18 0)
(47.2776 -4.04463e-18 0)
(47.1832 -4.02346e-18 0)
(47.0884 -4.00234e-18 0)
(46.9931 -3.98127e-18 0)
(46.8973 -3.96026e-18 0)
(46.8011 -3.9393e-18 0)
(46.7044 -3.91839e-18 0)
(46.6073 -3.89753e-18 0)
(46.5097 -3.87673e-18 0)
(46.4117 -3.85597e-18 0)
(46.3132 -3.83527e-18 0)
(46.2143 -3.81462e-18 0)
(46.1149 -3.79403e-18 0)
(46.015 -3.77348e-18 0)
(45.9147 -3.75299e-18 0)
(45.8139 -3.73255e-18 0)
(45.7127 -3.71216e-18 0)
(45.611 -3.69182e-18 0)
(45.5089 -3.67154e-18 0)
(45.4063 -3.6513e-18 0)
(45.3032 -3.63112e-18 0)
(45.1997 -3.61099e-18 0)
(45.0958 -3.59091e-18 0)
(44.9913 -3.57089e-18 0)
(44.8865 -3.55091e-18 0)
(44.7811 -3.53099e-18 0)
(44.6753 -3.51111e-18 0)
(44.5691 -3.49129e-18 0)
(44.4624 -3.47152e-18 0)
(44.3553 -3.45181e-18 0)
(44.2476 -3.43214e-18 0)
(44.1396 -3.41252e-18 0)
(44.0311 -3.39296e-18 0)
(43.9221 -3.37345e-18 0)
(43.8126 -3.35399e-18 0)
(43.7027 -3.33458e-18 0)
(43.5924 -3.31522e-18 0)
(43.4816 -3.29591e-18 0)
(43.3703 -3.27665e-18 0)
(43.2586 -3.25745e-18 0)
(43.1465 -3.23829e-18 0)
(43.0338 -3.21919e-18 0)
(42.9207 -3.20014e-18 0)
(42.8072 -3.18114e-18 0)
(42.6932 -3.16219e-18 0)
(42.5788 -3.14329e-18 0)
(42.4639 -3.12444e-18 0)
(42.3485 -3.10565e-18 0)
(42.2327 -3.0869e-18 0)
(42.1164 -3.0682e-18 0)
(41.9997 -3.04956e-18 0)
(41.8825 -3.03097e-18 0)
(41.7648 -3.01243e-18 0)
(41.6467 -2.99393e-18 0)
(41.5282 -2.97549e-18 0)
(41.4092 -2.9571e-18 0)
(41.2897 -2.93876e-18 0)
(41.1698 -2.92048e-18 0)
(41.0494 -2.90224e-18 0)
(40.9286 -2.88405e-18 0)
(40.8073 -2.86592e-18 0)
(40.6855 -2.84783e-18 0)
(40.5633 -2.8298e-18 0)
(40.4407 -2.81181e-18 0)
(40.3175 -2.79388e-18 0)
(40.194 -2.776e-18 0)
(40.0699 -2.75816e-18 0)
(39.9455 -2.74038e-18 0)
(39.8205 -2.72265e-18 0)
(39.6951 -2.70497e-18 0)
(39.5693 -2.68734e-18 0)
(39.443 -2.66976e-18 0)
(39.3162 -2.65223e-18 0)
(39.189 -2.63475e-18 0)
(39.0613 -2.61732e-18 0)
(38.9332 -2.59994e-18 0)
(38.8046 -2.58262e-18 0)
(38.6755 -2.56534e-18 0)
(38.546 -2.54811e-18 0)
(38.4161 -2.53094e-18 0)
(38.2857 -2.51381e-18 0)
(38.1548 -2.49674e-18 0)
(38.0235 -2.47971e-18 0)
(37.8917 -2.46273e-18 0)
(37.7595 -2.44581e-18 0)
(37.6268 -2.42894e-18 0)
(37.4936 -2.41211e-18 0)
(37.36 -2.39534e-18 0)
(37.2259 -2.37861e-18 0)
(37.0914 -2.36194e-18 0)
(36.9565 -2.34532e-18 0)
(36.821 -2.32874e-18 0)
(36.6851 -2.31222e-18 0)
(36.5488 -2.29575e-18 0)
(36.412 -2.27933e-18 0)
(36.2748 -2.26295e-18 0)
(36.137 -2.24663e-18 0)
(35.9989 -2.23036e-18 0)
(35.8603 -2.21414e-18 0)
(35.7212 -2.19797e-18 0)
(35.5816 -2.18184e-18 0)
(35.4417 -2.16577e-18 0)
(35.3012 -2.14975e-18 0)
(35.1603 -2.13378e-18 0)
(35.0189 -2.11786e-18 0)
(34.8771 -2.10198e-18 0)
(34.7349 -2.08616e-18 0)
(34.5921 -2.07039e-18 0)
(34.449 -2.05467e-18 0)
(34.3053 -2.039e-18 0)
(34.1612 -2.02338e-18 0)
(34.0167 -2.0078e-18 0)
(33.8717 -1.99228e-18 0)
(33.7262 -1.97681e-18 0)
(33.5803 -1.96139e-18 0)
(33.4339 -1.94602e-18 0)
(33.2871 -1.93069e-18 0)
(33.1398 -1.91542e-18 0)
(32.9921 -1.9002e-18 0)
(32.8439 -1.88503e-18 0)
(32.6952 -1.8699e-18 0)
(32.5461 -1.85483e-18 0)
(32.3965 -1.83981e-18 0)
(32.2465 -1.82484e-18 0)
(32.096 -1.80991e-18 0)
(31.9451 -1.79504e-18 0)
(31.7937 -1.78021e-18 0)
(31.6418 -1.76544e-18 0)
(31.4895 -1.75072e-18 0)
(31.3368 -1.73604e-18 0)
(31.1836 -1.72142e-18 0)
(31.0299 -1.70684e-18 0)
(30.8758 -1.69232e-18 0)
(30.7212 -1.67784e-18 0)
(30.5662 -1.66341e-18 0)
(30.4107 -1.64904e-18 0)
(30.2547 -1.63471e-18 0)
(30.0983 -1.62043e-18 0)
(29.9414 -1.60621e-18 0)
(29.7841 -1.59203e-18 0)
(29.6263 -1.5779e-18 0)
(29.4681 -1.56382e-18 0)
(29.3094 -1.54979e-18 0)
(29.1503 -1.53581e-18 0)
(28.9907 -1.52189e-18 0)
(28.8306 -1.50801e-18 0)
(28.6701 -1.49418e-18 0)
(28.5091 -1.4804e-18 0)
(28.3477 -1.46666e-18 0)
(28.1858 -1.45298e-18 0)
(28.0235 -1.43935e-18 0)
(27.8607 -1.42577e-18 0)
(27.6975 -1.41224e-18 0)
(27.5338 -1.39876e-18 0)
(27.3696 -1.38533e-18 0)
(27.205 -1.37194e-18 0)
(27.0399 -1.35861e-18 0)
(26.8744 -1.34533e-18 0)
(26.7084 -1.33209e-18 0)
(26.542 -1.31891e-18 0)
(26.3751 -1.30578e-18 0)
(26.2077 -1.29269e-18 0)
(26.0399 -1.27966e-18 0)
(25.8716 -1.26668e-18 0)
(25.7029 -1.25374e-18 0)
(25.5337 -1.24086e-18 0)
(25.3641 -1.22802e-18 0)
(25.194 -1.21524e-18 0)
(25.0235 -1.20251e-18 0)
(24.8525 -1.18982e-18 0)
(24.681 -1.17719e-18 0)
(24.5091 -1.16461e-18 0)
(24.3367 -1.15207e-18 0)
(24.1639 -1.13959e-18 0)
(23.9906 -1.12716e-18 0)
(23.8169 -1.11478e-18 0)
(23.6427 -1.10245e-18 0)
(23.468 -1.09017e-18 0)
(23.2929 -1.07794e-18 0)
(23.1174 -1.06576e-18 0)
(22.9414 -1.05363e-18 0)
(22.7649 -1.04155e-18 0)
(22.5879 -1.02953e-18 0)
(22.4106 -1.01755e-18 0)
(22.2327 -1.00563e-18 0)
(22.0544 -9.93758e-19 0)
(21.8757 -9.81937e-19 0)
(21.6965 -9.70167e-19 0)
(21.5168 -9.58449e-19 0)
(21.3367 -9.46782e-19 0)
(21.1561 -9.35167e-19 0)
(20.9751 -9.23604e-19 0)
(20.7936 -9.12093e-19 0)
(20.6116 -9.00634e-19 0)
(20.4292 -8.89227e-19 0)
(20.2464 -8.77872e-19 0)
(20.063 -8.6657e-19 0)
(19.8793 -8.5532e-19 0)
(19.695 -8.44122e-19 0)
(19.5104 -8.32978e-19 0)
(19.3252 -8.21885e-19 0)
(19.1396 -8.10846e-19 0)
(18.9536 -7.9986e-19 0)
(18.7671 -7.88927e-19 0)
(18.5801 -7.78046e-19 0)
(18.3927 -7.67219e-19 0)
(18.2048 -7.56446e-19 0)
(18.0165 -7.45726e-19 0)
(17.8277 -7.35059e-19 0)
(17.6385 -7.24446e-19 0)
(17.4488 -7.13886e-19 0)
(17.2586 -7.03381e-19 0)
(17.068 -6.92929e-19 0)
(16.8769 -6.82531e-19 0)
(16.6854 -6.72187e-19 0)
(16.4934 -6.61897e-19 0)
(16.301 -6.5166e-19 0)
(16.1081 -6.41478e-19 0)
(15.9147 -6.3135e-19 0)
(15.7209 -6.21276e-19 0)
(15.5267 -6.11257e-19 0)
(15.332 -6.01291e-19 0)
(15.1368 -5.91379e-19 0)
(14.9412 -5.81522e-19 0)
(14.7451 -5.71718e-19 0)
(14.5485 -5.61968e-19 0)
(14.3516 -5.52273e-19 0)
(14.1541 -5.42631e-19 0)
(13.9562 -5.33043e-19 0)
(13.7578 -5.23508e-19 0)
(13.559 -5.14027e-19 0)
(13.3597 -5.04599e-19 0)
(13.16 -4.95225e-19 0)
(12.9598 -4.85903e-19 0)
(12.7592 -4.76634e-19 0)
(12.5581 -4.67418e-19 0)
(12.3565 -4.58255e-19 0)
(12.1545 -4.49143e-19 0)
(11.952 -4.40083e-19 0)
(11.7491 -4.31075e-19 0)
(11.5457 -4.22118e-19 0)
(11.3419 -4.13212e-19 0)
(11.1376 -4.04357e-19 0)
(10.9329 -3.95551e-19 0)
(10.7276 -3.86796e-19 0)
(10.522 -3.7809e-19 0)
(10.3159 -3.69432e-19 0)
(10.1093 -3.60823e-19 0)
(9.90227 -3.52262e-19 0)
(9.69478 -3.43749e-19 0)
(9.48684 -3.35282e-19 0)
(9.27845 -3.26861e-19 0)
(9.06959 -3.18487e-19 0)
(8.86029 -3.10157e-19 0)
(8.65052 -3.01871e-19 0)
(8.4403 -2.93629e-19 0)
(8.22962 -2.85431e-19 0)
(8.01849 -2.77274e-19 0)
(7.8069 -2.69159e-19 0)
(7.59486 -2.61085e-19 0)
(7.38236 -2.5305e-19 0)
(7.1694 -2.45055e-19 0)
(6.95599 -2.37097e-19 0)
(6.74212 -2.29177e-19 0)
(6.52779 -2.21294e-19 0)
(6.31301 -2.13446e-19 0)
(6.09778 -2.05632e-19 0)
(5.88208 -1.97852e-19 0)
(5.66593 -1.90105e-19 0)
(5.44933 -1.82389e-19 0)
(5.23227 -1.74704e-19 0)
(5.01475 -1.67047e-19 0)
(4.79678 -1.5942e-19 0)
(4.57835 -1.51819e-19 0)
(4.35946 -1.44244e-19 0)
(4.14012 -1.36695e-19 0)
(3.92032 -1.29169e-19 0)
(3.70007 -1.21665e-19 0)
(3.47936 -1.14183e-19 0)
(3.2582 -1.06721e-19 0)
(3.03658 -9.92782e-20 0)
(2.8145 -9.18528e-20 0)
(2.59197 -8.44438e-20 0)
(2.36898 -7.70499e-20 0)
(2.14553 -6.96698e-20 0)
(1.92163 -6.23023e-20 0)
(1.69727 -5.49461e-20 0)
(1.47246 -4.75997e-20 0)
(1.24719 -4.02621e-20 0)
(1.02146 -3.29317e-20 0)
(0.795283 -2.56073e-20 0)
(0.568646 -1.82875e-20 0)
(0.341552 -1.09711e-20 0)
(0.114003 -3.65671e-21 0)
)
;

boundaryField
{
    top_wall
    {
        type            noSlip;
    }
    inlet
    {
        type            cyclic;
    }
    bot_wall
    {
        type            noSlip;
    }
    outlet
    {
        type            cyclic;
    }
    frontAndBack
    {
        type            empty;
    }
}


// ************************************************************************* //
