/*--------------------------------*- C++ -*----------------------------------*\
| =========                 |                                                 |
| \\      /  F ield         | OpenFOAM: The Open Source CFD Toolbox           |
|  \\    /   O peration     | Version:  2406                                  |
|   \\  /    A nd           | Website:  www.openfoam.com                      |
|    \\/     M anipulation  |                                                 |
\*---------------------------------------------------------------------------*/
FoamFile
{
    version     2.0;
    format      ascii;
    arch        "LSB;label=32;scalar=64";
    class       volScalarField;
    location    "16.495";
    object      k;
}
// * * * * * * * * * * * * * * * * * * * * * * * * * * * * * * * * * * * * * //

dimensions      [0 2 -2 0 0 0 0];

internalField   nonuniform List<scalar> 
1000
(
0.00168242
0.00154228
0.00907373
0.0303193
0.0653466
0.104427
0.138939
0.166433
0.187635
0.203953
0.216636
0.226625
0.2346
0.24105
0.246326
0.250684
0.254313
0.257358
0.259926
0.262103
0.263954
0.265533
0.26688
0.26803
0.269011
0.269846
0.270554
0.271151
0.271651
0.272065
0.272402
0.272671
0.27288
0.273034
0.27314
0.273201
0.273223
0.273208
0.27316
0.273083
0.272978
0.272848
0.272695
0.27252
0.272327
0.272115
0.271887
0.271643
0.271385
0.271113
0.27083
0.270535
0.270229
0.269913
0.269589
0.269255
0.268913
0.268564
0.268207
0.267843
0.267474
0.267098
0.266717
0.26633
0.265938
0.265542
0.265141
0.264736
0.264327
0.263914
0.263498
0.263078
0.262654
0.262228
0.261799
0.261367
0.260932
0.260495
0.260055
0.259613
0.259169
0.258722
0.258274
0.257823
0.257371
0.256916
0.25646
0.256003
0.255543
0.255082
0.25462
0.254156
0.253691
0.253224
0.252756
0.252287
0.251816
0.251344
0.250871
0.250397
0.249922
0.249445
0.248968
0.248489
0.24801
0.247529
0.247048
0.246565
0.246082
0.245598
0.245112
0.244626
0.244139
0.243651
0.243163
0.242673
0.242183
0.241691
0.241199
0.240706
0.240213
0.239718
0.239223
0.238727
0.23823
0.237733
0.237234
0.236735
0.236236
0.235735
0.235234
0.234732
0.234229
0.233726
0.233221
0.232717
0.232211
0.231705
0.231198
0.23069
0.230181
0.229672
0.229162
0.228652
0.228141
0.227629
0.227116
0.226603
0.226089
0.225574
0.225058
0.224542
0.224025
0.223508
0.22299
0.222471
0.221951
0.221431
0.22091
0.220388
0.219866
0.219343
0.218819
0.218295
0.217769
0.217244
0.216717
0.21619
0.215662
0.215134
0.214604
0.214074
0.213544
0.213013
0.212481
0.211948
0.211415
0.210881
0.210346
0.209811
0.209275
0.208738
0.208201
0.207663
0.207124
0.206584
0.206044
0.205504
0.204962
0.20442
0.203877
0.203334
0.20279
0.202245
0.2017
0.201154
0.200607
0.20006
0.199512
0.198963
0.198414
0.197864
0.197314
0.196762
0.196211
0.195658
0.195105
0.194551
0.193997
0.193442
0.192887
0.19233
0.191774
0.191216
0.190658
0.1901
0.18954
0.188981
0.18842
0.187859
0.187298
0.186736
0.186173
0.18561
0.185046
0.184482
0.183917
0.183351
0.182785
0.182218
0.181651
0.181084
0.180516
0.179947
0.179378
0.178808
0.178238
0.177667
0.177096
0.176524
0.175952
0.175379
0.174806
0.174232
0.173658
0.173084
0.172509
0.171934
0.171358
0.170781
0.170205
0.169628
0.16905
0.168472
0.167894
0.167315
0.166736
0.166157
0.165577
0.164997
0.164417
0.163836
0.163255
0.162673
0.162092
0.16151
0.160927
0.160345
0.159762
0.159179
0.158595
0.158012
0.157428
0.156844
0.156259
0.155675
0.15509
0.154505
0.15392
0.153335
0.152749
0.152164
0.151578
0.150992
0.150406
0.14982
0.149234
0.148648
0.148062
0.147475
0.146889
0.146302
0.145716
0.145129
0.144543
0.143956
0.14337
0.142784
0.142197
0.141611
0.141025
0.140439
0.139853
0.139267
0.138681
0.138095
0.13751
0.136925
0.136339
0.135755
0.13517
0.134585
0.134001
0.133417
0.132834
0.13225
0.131667
0.131084
0.130502
0.12992
0.129338
0.128757
0.128176
0.127596
0.127016
0.126436
0.125857
0.125279
0.124701
0.124123
0.123546
0.12297
0.122394
0.121819
0.121244
0.12067
0.120097
0.119524
0.118952
0.118381
0.117811
0.117241
0.116672
0.116104
0.115537
0.11497
0.114405
0.11384
0.113276
0.112714
0.112152
0.111591
0.111031
0.110472
0.109915
0.109358
0.108802
0.108248
0.107695
0.107143
0.106592
0.106042
0.105494
0.104946
0.104401
0.103856
0.103313
0.102771
0.102231
0.101692
0.101155
0.100619
0.100085
0.0995517
0.0990205
0.098491
0.0979631
0.0974368
0.0969123
0.0963895
0.0958686
0.0953494
0.094832
0.0943166
0.093803
0.0932914
0.0927818
0.0922741
0.0917686
0.091265
0.0907637
0.0902644
0.0897674
0.0892725
0.08878
0.0882897
0.0878018
0.0873162
0.086833
0.0863523
0.0858741
0.0853984
0.0849253
0.0844548
0.0839869
0.0835218
0.0830593
0.0825997
0.0821428
0.0816888
0.0812377
0.0807895
0.0803444
0.0799022
0.0794632
0.0790273
0.0785945
0.0781649
0.0777386
0.0773156
0.076896
0.0764797
0.0760669
0.0756576
0.0752518
0.0748497
0.0744511
0.0740563
0.0736651
0.0732778
0.0728943
0.0725147
0.072139
0.0717673
0.0713996
0.0710361
0.0706766
0.0703214
0.0699704
0.0696237
0.0692813
0.0689433
0.0686098
0.0682808
0.0679563
0.0676364
0.0673212
0.0670107
0.066705
0.066404
0.066108
0.0658168
0.0655306
0.0652494
0.0649733
0.0647023
0.0644365
0.0641759
0.0639205
0.0636705
0.0634258
0.0631866
0.0629528
0.0627245
0.0625018
0.0622847
0.0620732
0.0618674
0.0616673
0.061473
0.0612846
0.0611019
0.0609252
0.0607545
0.0605897
0.0604309
0.0602782
0.0601315
0.059991
0.0598566
0.0597285
0.0596065
0.0594908
0.0593813
0.0592782
0.0591813
0.0590908
0.0590067
0.058929
0.0588577
0.0587928
0.0587343
0.0586823
0.0586368
0.0585978
0.0585652
0.0585392
0.0585197
0.0585066
0.0585001
0.0585001
0.0585066
0.0585197
0.0585392
0.0585653
0.0585978
0.0586369
0.0586824
0.0587344
0.0587928
0.0588577
0.058929
0.0590068
0.0590909
0.0591814
0.0592782
0.0593813
0.0594908
0.0596065
0.0597285
0.0598567
0.059991
0.0601316
0.0602782
0.0604309
0.0605897
0.0607545
0.0609253
0.061102
0.0612846
0.0614731
0.0616673
0.0618674
0.0620732
0.0622847
0.0625018
0.0627245
0.0629528
0.0631866
0.0634259
0.0636705
0.0639205
0.0641759
0.0644365
0.0647023
0.0649733
0.0652494
0.0655306
0.0658168
0.066108
0.066404
0.066705
0.0670107
0.0673212
0.0676364
0.0679563
0.0682808
0.0686098
0.0689433
0.0692813
0.0696237
0.0699704
0.0703214
0.0706766
0.0710361
0.0713996
0.0717673
0.072139
0.0725147
0.0728943
0.0732778
0.0736651
0.0740562
0.0744511
0.0748496
0.0752518
0.0756576
0.0760669
0.0764797
0.076896
0.0773156
0.0777386
0.0781649
0.0785945
0.0790272
0.0794632
0.0799022
0.0803444
0.0807895
0.0812377
0.0816888
0.0821428
0.0825997
0.0830593
0.0835218
0.0839869
0.0844548
0.0849253
0.0853984
0.0858741
0.0863524
0.0868331
0.0873162
0.0878018
0.0882897
0.08878
0.0892726
0.0897674
0.0902645
0.0907637
0.0912651
0.0917686
0.0922742
0.0927818
0.0932914
0.0938031
0.0943166
0.0948321
0.0953494
0.0958686
0.0963896
0.0969124
0.0974369
0.0979631
0.098491
0.0990206
0.0995518
0.100085
0.100619
0.101155
0.101692
0.102231
0.102771
0.103313
0.103856
0.104401
0.104946
0.105494
0.106042
0.106592
0.107143
0.107695
0.108248
0.108802
0.109358
0.109915
0.110472
0.111031
0.111591
0.112152
0.112714
0.113276
0.11384
0.114405
0.11497
0.115537
0.116104
0.116672
0.117241
0.117811
0.118381
0.118952
0.119524
0.120097
0.12067
0.121244
0.121819
0.122394
0.12297
0.123546
0.124123
0.124701
0.125279
0.125857
0.126436
0.127016
0.127596
0.128176
0.128757
0.129338
0.12992
0.130502
0.131084
0.131667
0.13225
0.132834
0.133417
0.134001
0.134585
0.13517
0.135755
0.136339
0.136925
0.13751
0.138095
0.138681
0.139267
0.139853
0.140439
0.141025
0.141611
0.142197
0.142784
0.14337
0.143956
0.144543
0.145129
0.145716
0.146302
0.146889
0.147475
0.148062
0.148648
0.149234
0.14982
0.150406
0.150992
0.151578
0.152164
0.152749
0.153335
0.15392
0.154505
0.15509
0.155675
0.156259
0.156844
0.157428
0.158012
0.158595
0.159179
0.159762
0.160345
0.160927
0.16151
0.162092
0.162673
0.163255
0.163836
0.164417
0.164997
0.165577
0.166157
0.166736
0.167315
0.167894
0.168472
0.16905
0.169628
0.170205
0.170781
0.171358
0.171934
0.172509
0.173084
0.173658
0.174232
0.174806
0.175379
0.175952
0.176524
0.177096
0.177667
0.178238
0.178808
0.179378
0.179947
0.180516
0.181084
0.181651
0.182218
0.182785
0.183351
0.183917
0.184482
0.185046
0.18561
0.186173
0.186736
0.187298
0.187859
0.18842
0.188981
0.18954
0.1901
0.190658
0.191216
0.191774
0.19233
0.192887
0.193442
0.193997
0.194551
0.195105
0.195658
0.196211
0.196762
0.197314
0.197864
0.198414
0.198963
0.199512
0.20006
0.200607
0.201154
0.2017
0.202245
0.20279
0.203334
0.203877
0.20442
0.204962
0.205504
0.206044
0.206584
0.207124
0.207663
0.208201
0.208738
0.209275
0.209811
0.210346
0.210881
0.211415
0.211948
0.212481
0.213013
0.213544
0.214074
0.214604
0.215134
0.215662
0.21619
0.216717
0.217244
0.217769
0.218295
0.218819
0.219343
0.219866
0.220388
0.22091
0.221431
0.221951
0.222471
0.22299
0.223508
0.224025
0.224542
0.225058
0.225574
0.226089
0.226603
0.227116
0.227629
0.228141
0.228652
0.229162
0.229672
0.230181
0.23069
0.231198
0.231705
0.232211
0.232717
0.233221
0.233726
0.234229
0.234732
0.235234
0.235735
0.236236
0.236735
0.237234
0.237733
0.23823
0.238727
0.239223
0.239718
0.240213
0.240706
0.241199
0.241691
0.242183
0.242673
0.243163
0.243651
0.244139
0.244626
0.245112
0.245598
0.246082
0.246565
0.247048
0.247529
0.24801
0.248489
0.248968
0.249445
0.249922
0.250397
0.250871
0.251344
0.251816
0.252287
0.252756
0.253224
0.253691
0.254156
0.25462
0.255082
0.255543
0.256003
0.25646
0.256916
0.257371
0.257823
0.258274
0.258722
0.259169
0.259613
0.260055
0.260495
0.260932
0.261367
0.261799
0.262228
0.262654
0.263078
0.263498
0.263914
0.264327
0.264736
0.265141
0.265542
0.265938
0.26633
0.266717
0.267098
0.267474
0.267843
0.268207
0.268563
0.268913
0.269255
0.269588
0.269913
0.270229
0.270535
0.27083
0.271113
0.271385
0.271643
0.271886
0.272115
0.272327
0.27252
0.272695
0.272848
0.272978
0.273083
0.27316
0.273208
0.273223
0.273201
0.27314
0.273034
0.27288
0.272671
0.272402
0.272064
0.271651
0.271151
0.270554
0.269846
0.269011
0.26803
0.26688
0.265532
0.263954
0.262103
0.259926
0.257358
0.254313
0.250684
0.246326
0.24105
0.2346
0.226625
0.216636
0.203953
0.187635
0.166433
0.138939
0.104426
0.0653466
0.0303193
0.00907372
0.00154228
0.00168242
)
;

boundaryField
{
    top_wall
    {
        type            kLowReWallFunction;
        value           uniform 2.15416e-07;
    }
    inlet
    {
        type            cyclic;
    }
    bot_wall
    {
        type            kLowReWallFunction;
        value           uniform 2.15416e-07;
    }
    outlet
    {
        type            cyclic;
    }
    frontAndBack
    {
        type            empty;
    }
}


// ************************************************************************* //
