/*--------------------------------*- C++ -*----------------------------------*\
| =========                 |                                                 |
| \\      /  F ield         | OpenFOAM: The Open Source CFD Toolbox           |
|  \\    /   O peration     | Version:  2406                                  |
|   \\  /    A nd           | Website:  www.openfoam.com                      |
|    \\/     M anipulation  |                                                 |
\*---------------------------------------------------------------------------*/
FoamFile
{
    version     2.0;
    format      ascii;
    arch        "LSB;label=32;scalar=64";
    class       volScalarField;
    location    "16.495";
    object      nut;
}
// * * * * * * * * * * * * * * * * * * * * * * * * * * * * * * * * * * * * * //

dimensions      [0 2 -1 0 0 0 0];

internalField   nonuniform List<scalar> 
1000
(
2.62874e-08
1.36433e-07
2.24361e-06
1.41879e-05
4.64255e-05
0.000100717
0.000171458
0.000253015
0.000341707
0.000435283
0.000532326
0.000631899
0.000733356
0.000836231
0.00094018
0.00104494
0.00115031
0.00125613
0.00136227
0.00146863
0.00157511
0.00168165
0.00178819
0.00189468
0.00200107
0.00210732
0.00221341
0.0023193
0.00242497
0.0025304
0.00263558
0.00274047
0.00284508
0.00294938
0.00305336
0.00315702
0.00326035
0.00336333
0.00346595
0.00356822
0.00367012
0.00377165
0.0038728
0.00397357
0.00407395
0.00417394
0.00427354
0.00437274
0.00447154
0.00456993
0.00466792
0.0047655
0.00486267
0.00495942
0.00505575
0.00515167
0.00524717
0.00534225
0.00543691
0.00553114
0.00562494
0.00571832
0.00581127
0.00590379
0.00599588
0.00608754
0.00617877
0.00626956
0.00635992
0.00644984
0.00653933
0.00662839
0.00671701
0.00680519
0.00689293
0.00698023
0.0070671
0.00715353
0.00723951
0.00732506
0.00741017
0.00749484
0.00757906
0.00766285
0.00774619
0.00782909
0.00791156
0.00799357
0.00807515
0.00815629
0.00823698
0.00831723
0.00839704
0.00847641
0.00855533
0.00863381
0.00871185
0.00878945
0.0088666
0.00894332
0.00901959
0.00909541
0.0091708
0.00924575
0.00932025
0.00939431
0.00946793
0.00954111
0.00961385
0.00968615
0.00975801
0.00982942
0.0099004
0.00997094
0.010041
0.0101107
0.0101799
0.0102487
0.010317
0.0103849
0.0104524
0.0105194
0.010586
0.0106522
0.0107179
0.0107832
0.0108481
0.0109125
0.0109765
0.01104
0.0111031
0.0111658
0.0112281
0.0112899
0.0113513
0.0114122
0.0114727
0.0115328
0.0115925
0.0116517
0.0117106
0.0117689
0.0118269
0.0118844
0.0119415
0.0119982
0.0120545
0.0121103
0.0121657
0.0122207
0.0122752
0.0123294
0.0123831
0.0124364
0.0124893
0.0125417
0.0125938
0.0126454
0.0126966
0.0127474
0.0127978
0.0128477
0.0128973
0.0129464
0.0129951
0.0130434
0.0130913
0.0131388
0.0131859
0.0132325
0.0132788
0.0133247
0.0133701
0.0134151
0.0134598
0.013504
0.0135478
0.0135912
0.0136343
0.0136769
0.0137191
0.0137609
0.0138023
0.0138434
0.013884
0.0139242
0.013964
0.0140035
0.0140425
0.0140812
0.0141194
0.0141573
0.0141948
0.0142318
0.0142685
0.0143048
0.0143408
0.0143763
0.0144114
0.0144462
0.0144806
0.0145146
0.0145482
0.0145814
0.0146142
0.0146467
0.0146788
0.0147105
0.0147418
0.0147728
0.0148034
0.0148336
0.0148634
0.0148929
0.0149219
0.0149507
0.014979
0.015007
0.0150346
0.0150618
0.0150887
0.0151152
0.0151413
0.0151671
0.0151925
0.0152175
0.0152422
0.0152665
0.0152904
0.015314
0.0153373
0.0153601
0.0153827
0.0154048
0.0154266
0.0154481
0.0154692
0.0154899
0.0155103
0.0155303
0.01555
0.0155694
0.0155883
0.015607
0.0156253
0.0156432
0.0156608
0.0156781
0.015695
0.0157115
0.0157278
0.0157436
0.0157592
0.0157744
0.0157892
0.0158037
0.0158179
0.0158317
0.0158453
0.0158584
0.0158713
0.0158837
0.0158959
0.0159077
0.0159192
0.0159304
0.0159413
0.0159518
0.0159619
0.0159718
0.0159813
0.0159905
0.0159994
0.0160079
0.0160161
0.016024
0.0160316
0.0160389
0.0160458
0.0160524
0.0160587
0.0160647
0.0160703
0.0160757
0.0160807
0.0160854
0.0160898
0.0160939
0.0160976
0.0161011
0.0161042
0.016107
0.0161096
0.0161118
0.0161137
0.0161152
0.0161165
0.0161175
0.0161182
0.0161185
0.0161186
0.0161183
0.0161178
0.016117
0.0161158
0.0161144
0.0161126
0.0161106
0.0161082
0.0161056
0.0161026
0.0160994
0.0160959
0.016092
0.0160879
0.0160835
0.0160788
0.0160738
0.0160685
0.016063
0.0160571
0.016051
0.0160445
0.0160378
0.0160308
0.0160235
0.016016
0.0160081
0.016
0.0159916
0.0159829
0.015974
0.0159647
0.0159552
0.0159454
0.0159354
0.0159251
0.0159145
0.0159036
0.0158924
0.015881
0.0158694
0.0158574
0.0158452
0.0158328
0.01582
0.0158071
0.0157938
0.0157803
0.0157666
0.0157526
0.0157383
0.0157238
0.015709
0.015694
0.0156787
0.0156632
0.0156475
0.0156315
0.0156152
0.0155988
0.0155821
0.0155651
0.0155479
0.0155305
0.0155129
0.015495
0.0154769
0.0154586
0.01544
0.0154213
0.0154023
0.0153831
0.0153637
0.0153441
0.0153243
0.0153042
0.015284
0.0152636
0.0152429
0.0152221
0.0152011
0.0151798
0.0151584
0.0151369
0.0151151
0.0150931
0.015071
0.0150487
0.0150263
0.0150037
0.0149809
0.0149579
0.0149348
0.0149116
0.0148882
0.0148646
0.014841
0.0148171
0.0147932
0.0147691
0.0147449
0.0147206
0.0146962
0.0146717
0.0146471
0.0146223
0.0145975
0.0145726
0.0145476
0.0145225
0.0144974
0.0144722
0.0144469
0.0144215
0.0143962
0.0143707
0.0143453
0.0143198
0.0142943
0.0142687
0.0142432
0.0142176
0.0141921
0.0141666
0.014141
0.0141155
0.0140901
0.0140646
0.0140393
0.0140139
0.0139887
0.0139635
0.0139383
0.0139133
0.0138884
0.0138635
0.0138388
0.0138142
0.0137897
0.0137654
0.0137412
0.0137172
0.0136933
0.0136696
0.0136461
0.0136228
0.0135997
0.0135768
0.0135541
0.0135316
0.0135094
0.0134875
0.0134658
0.0134444
0.0134232
0.0134024
0.0133818
0.0133616
0.0133416
0.013322
0.0133028
0.0132839
0.0132653
0.0132471
0.0132293
0.0132119
0.0131949
0.0131783
0.0131621
0.0131463
0.013131
0.0131161
0.0131016
0.0130876
0.0130741
0.013061
0.0130485
0.0130364
0.0130248
0.0130137
0.0130031
0.0129931
0.0129835
0.0129745
0.0129661
0.0129581
0.0129507
0.0129439
0.0129376
0.0129319
0.0129267
0.0129221
0.0129181
0.0129147
0.0129118
0.0129095
0.0129077
0.0129066
0.012906
0.012906
0.0129066
0.0129077
0.0129095
0.0129118
0.0129147
0.0129181
0.0129221
0.0129267
0.0129319
0.0129376
0.0129439
0.0129507
0.0129581
0.0129661
0.0129745
0.0129835
0.0129931
0.0130031
0.0130137
0.0130248
0.0130364
0.0130485
0.013061
0.0130741
0.0130876
0.0131016
0.0131161
0.013131
0.0131463
0.0131621
0.0131783
0.0131949
0.0132119
0.0132293
0.0132471
0.0132653
0.0132839
0.0133028
0.013322
0.0133416
0.0133615
0.0133818
0.0134023
0.0134232
0.0134443
0.0134658
0.0134875
0.0135094
0.0135316
0.0135541
0.0135768
0.0135997
0.0136228
0.0136461
0.0136696
0.0136933
0.0137172
0.0137412
0.0137654
0.0137897
0.0138142
0.0138388
0.0138635
0.0138884
0.0139133
0.0139383
0.0139634
0.0139886
0.0140139
0.0140392
0.0140646
0.01409
0.0141155
0.014141
0.0141665
0.0141921
0.0142176
0.0142432
0.0142687
0.0142943
0.0143198
0.0143453
0.0143707
0.0143961
0.0144215
0.0144469
0.0144721
0.0144973
0.0145225
0.0145476
0.0145726
0.0145975
0.0146223
0.014647
0.0146717
0.0146962
0.0147206
0.0147449
0.0147691
0.0147932
0.0148171
0.0148409
0.0148646
0.0148882
0.0149116
0.0149348
0.0149579
0.0149808
0.0150036
0.0150263
0.0150487
0.015071
0.0150931
0.0151151
0.0151368
0.0151584
0.0151798
0.015201
0.0152221
0.0152429
0.0152635
0.015284
0.0153042
0.0153242
0.0153441
0.0153637
0.0153831
0.0154023
0.0154213
0.01544
0.0154586
0.0154769
0.015495
0.0155129
0.0155305
0.0155479
0.0155651
0.015582
0.0155987
0.0156152
0.0156315
0.0156475
0.0156632
0.0156787
0.015694
0.015709
0.0157238
0.0157383
0.0157525
0.0157665
0.0157803
0.0157938
0.015807
0.01582
0.0158327
0.0158452
0.0158574
0.0158693
0.015881
0.0158924
0.0159036
0.0159144
0.015925
0.0159354
0.0159454
0.0159552
0.0159647
0.0159739
0.0159829
0.0159916
0.016
0.0160081
0.016016
0.0160235
0.0160308
0.0160378
0.0160445
0.0160509
0.0160571
0.0160629
0.0160685
0.0160738
0.0160788
0.0160835
0.0160879
0.016092
0.0160958
0.0160994
0.0161026
0.0161055
0.0161082
0.0161105
0.0161126
0.0161143
0.0161158
0.0161169
0.0161178
0.0161183
0.0161186
0.0161185
0.0161181
0.0161175
0.0161165
0.0161152
0.0161136
0.0161117
0.0161095
0.016107
0.0161042
0.016101
0.0160976
0.0160938
0.0160898
0.0160854
0.0160807
0.0160756
0.0160703
0.0160647
0.0160587
0.0160524
0.0160458
0.0160388
0.0160316
0.016024
0.0160161
0.0160079
0.0159994
0.0159905
0.0159813
0.0159718
0.0159619
0.0159517
0.0159412
0.0159304
0.0159192
0.0159077
0.0158959
0.0158837
0.0158712
0.0158584
0.0158452
0.0158317
0.0158179
0.0158037
0.0157892
0.0157743
0.0157591
0.0157436
0.0157277
0.0157115
0.0156949
0.015678
0.0156608
0.0156432
0.0156252
0.015607
0.0155883
0.0155693
0.01555
0.0155303
0.0155103
0.0154899
0.0154691
0.0154481
0.0154266
0.0154048
0.0153826
0.0153601
0.0153372
0.015314
0.0152904
0.0152665
0.0152422
0.0152175
0.0151924
0.015167
0.0151413
0.0151151
0.0150886
0.0150618
0.0150345
0.0150069
0.014979
0.0149506
0.0149219
0.0148928
0.0148634
0.0148336
0.0148034
0.0147728
0.0147418
0.0147105
0.0146788
0.0146467
0.0146142
0.0145814
0.0145482
0.0145145
0.0144806
0.0144462
0.0144114
0.0143763
0.0143407
0.0143048
0.0142685
0.0142318
0.0141947
0.0141573
0.0141194
0.0140811
0.0140425
0.0140035
0.013964
0.0139242
0.013884
0.0138433
0.0138023
0.0137609
0.0137191
0.0136769
0.0136342
0.0135912
0.0135478
0.013504
0.0134598
0.0134151
0.0133701
0.0133246
0.0132788
0.0132325
0.0131859
0.0131388
0.0130913
0.0130434
0.0129951
0.0129464
0.0128972
0.0128477
0.0127977
0.0127474
0.0126966
0.0126454
0.0125938
0.0125417
0.0124893
0.0124364
0.0123831
0.0123294
0.0122752
0.0122207
0.0121657
0.0121103
0.0120544
0.0119982
0.0119415
0.0118844
0.0118269
0.0117689
0.0117105
0.0116517
0.0115925
0.0115328
0.0114727
0.0114122
0.0113513
0.0112899
0.011228
0.0111658
0.0111031
0.01104
0.0109765
0.0109125
0.0108481
0.0107832
0.0107179
0.0106522
0.010586
0.0105194
0.0104524
0.0103849
0.010317
0.0102487
0.0101799
0.0101107
0.010041
0.00997093
0.0099004
0.00982942
0.009758
0.00968614
0.00961385
0.00954111
0.00946793
0.00939431
0.00932025
0.00924574
0.0091708
0.00909541
0.00901958
0.00894331
0.0088666
0.00878945
0.00871185
0.00863381
0.00855533
0.0084764
0.00839704
0.00831723
0.00823698
0.00815629
0.00807515
0.00799357
0.00791155
0.00782909
0.00774619
0.00766285
0.00757906
0.00749483
0.00741017
0.00732506
0.00723951
0.00715353
0.0070671
0.00698023
0.00689293
0.00680518
0.006717
0.00662839
0.00653933
0.00644984
0.00635992
0.00626956
0.00617876
0.00608754
0.00599588
0.00590379
0.00581127
0.00571832
0.00562494
0.00553114
0.0054369
0.00534225
0.00524717
0.00515167
0.00505575
0.00495942
0.00486266
0.0047655
0.00466792
0.00456993
0.00447154
0.00437274
0.00427354
0.00417394
0.00407395
0.00397357
0.0038728
0.00377165
0.00367012
0.00356822
0.00346595
0.00336332
0.00326035
0.00315702
0.00305336
0.00294938
0.00284508
0.00274047
0.00263558
0.0025304
0.00242497
0.0023193
0.00221341
0.00210732
0.00200107
0.00189468
0.00178819
0.00168165
0.00157511
0.00146863
0.00136227
0.00125613
0.00115031
0.00104494
0.00094018
0.000836231
0.000733356
0.000631899
0.000532325
0.000435283
0.000341707
0.000253015
0.000171458
0.000100717
4.64255e-05
1.41879e-05
2.24361e-06
1.36433e-07
2.62874e-08
)
;

boundaryField
{
    top_wall
    {
        type            nutLowReWallFunction;
        value           uniform 0;
    }
    inlet
    {
        type            cyclic;
    }
    bot_wall
    {
        type            nutLowReWallFunction;
        value           uniform 0;
    }
    outlet
    {
        type            cyclic;
    }
    frontAndBack
    {
        type            empty;
    }
}


// ************************************************************************* //
