/*--------------------------------*- C++ -*----------------------------------*\
| =========                 |                                                 |
| \\      /  F ield         | OpenFOAM: The Open Source CFD Toolbox           |
|  \\    /   O peration     | Version:  2406                                  |
|   \\  /    A nd           | Website:  www.openfoam.com                      |
|    \\/     M anipulation  |                                                 |
\*---------------------------------------------------------------------------*/
FoamFile
{
    version     2.0;
    format      ascii;
    arch        "LSB;label=32;scalar=64";
    class       volScalarField;
    location    "16.495";
    object      omega;
}
// * * * * * * * * * * * * * * * * * * * * * * * * * * * * * * * * * * * * * //

dimensions      [0 0 -1 0 0 0 0];

internalField   nonuniform List<scalar> 
1000
(
64001
11304.3
4044.25
2136.99
1407.56
1036.83
810.338
657.797
549.11
468.554
406.961
358.641
319.9
288.258
261.999
239.902
221.082
204.881
190.803
178.468
167.578
157.9
149.245
141.465
134.434
128.052
122.234
116.911
112.022
107.518
103.356
99.4979
95.913
92.5735
89.4553
86.5376
83.8017
81.2315
78.8126
76.532
74.3785
72.3419
70.4129
68.5833
66.8459
65.1938
63.6209
62.1219
60.6916
59.3255
58.0194
56.7695
55.5722
54.4244
53.3231
52.2655
51.2491
50.2716
49.3308
48.4247
47.5514
46.7092
45.8965
45.1117
44.3535
43.6206
42.9117
42.2256
41.5614
40.9179
40.2943
39.6895
39.1029
38.5336
37.9808
37.4439
36.9221
36.4149
35.9216
35.4417
34.9747
34.52
34.0772
33.6458
33.2254
32.8156
32.4159
32.026
31.6456
31.2743
30.9118
30.5578
30.2119
29.874
29.5437
29.2208
28.905
28.5961
28.2939
27.9982
27.7088
27.4254
27.1479
26.8761
26.6098
26.3489
26.0931
25.8424
25.5966
25.3556
25.1191
24.8871
24.6595
24.4362
24.2169
24.0016
23.7902
23.5826
23.3787
23.1784
22.9816
22.7881
22.598
22.4111
22.2273
22.0466
21.8688
21.694
21.522
21.3528
21.1863
21.0224
20.8611
20.7022
20.5459
20.3919
20.2402
20.0909
19.9437
19.7987
19.6559
19.5151
19.3764
19.2396
19.1048
18.9719
18.8408
18.7116
18.5841
18.4584
18.3343
18.212
18.0912
17.9721
17.8545
17.7384
17.6239
17.5108
17.3991
17.2889
17.18
17.0725
16.9663
16.8614
16.7578
16.6554
16.5543
16.4543
16.3555
16.2579
16.1614
16.066
15.9718
15.8785
15.7864
15.6952
15.6051
15.5159
15.4278
15.3405
15.2543
15.1689
15.0844
15.0009
14.9182
14.8364
14.7554
14.6752
14.5958
14.5173
14.4395
14.3625
14.2863
14.2108
14.136
14.0619
13.9886
13.916
13.844
13.7727
13.7021
13.6321
13.5628
13.4941
13.426
13.3585
13.2916
13.2253
13.1596
13.0945
13.0299
12.9659
12.9024
12.8395
12.777
12.7151
12.6538
12.5929
12.5325
12.4726
12.4131
12.3542
12.2957
12.2377
12.1801
12.123
12.0663
12.01
11.9542
11.8988
11.8438
11.7892
11.735
11.6812
11.6278
11.5748
11.5221
11.4698
11.4179
11.3664
11.3152
11.2644
11.2139
11.1637
11.1139
11.0645
11.0153
10.9665
10.918
10.8698
10.8219
10.7744
10.7271
10.6801
10.6335
10.5871
10.541
10.4952
10.4496
10.4044
10.3594
10.3147
10.2702
10.2261
10.1821
10.1385
10.095
10.0519
10.0089
9.96625
9.9238
9.88159
9.83962
9.79788
9.75637
9.71508
9.67401
9.63317
9.59254
9.55213
9.51193
9.47195
9.43217
9.39259
9.35322
9.31405
9.27508
9.2363
9.19772
9.15933
9.12114
9.08313
9.0453
9.00766
8.97021
8.93293
8.89583
8.85891
8.82217
8.78559
8.74919
8.71296
8.6769
8.641
8.60527
8.56971
8.5343
8.49906
8.46397
8.42905
8.39428
8.35966
8.3252
8.29089
8.25673
8.22272
8.18886
8.15515
8.12159
8.08817
8.0549
8.02176
7.98877
7.95593
7.92322
7.89065
7.85822
7.82593
7.79378
7.76176
7.72987
7.69813
7.66651
7.63503
7.60368
7.57246
7.54137
7.51041
7.47959
7.44889
7.41832
7.38788
7.35756
7.32737
7.29731
7.26738
7.23757
7.20789
7.17833
7.1489
7.1196
7.09041
7.06135
7.03242
7.00361
6.97492
6.94636
6.91792
6.8896
6.86141
6.83334
6.80539
6.77757
6.74987
6.72229
6.69483
6.6675
6.6403
6.61322
6.58626
6.55942
6.53271
6.50613
6.47967
6.45334
6.42713
6.40105
6.37509
6.34926
6.32356
6.29799
6.27255
6.24723
6.22205
6.19699
6.17207
6.14728
6.12262
6.09809
6.0737
6.04944
6.02531
6.00133
5.97748
5.95376
5.93019
5.90675
5.88346
5.86031
5.8373
5.81443
5.79171
5.76913
5.7467
5.72442
5.70229
5.68031
5.65848
5.6368
5.61528
5.59392
5.57271
5.55165
5.53076
5.51003
5.48947
5.46906
5.44882
5.42875
5.40885
5.38912
5.36956
5.35018
5.33097
5.31194
5.29308
5.27441
5.25592
5.23761
5.21949
5.20156
5.18382
5.16627
5.14891
5.13175
5.11479
5.09802
5.08146
5.0651
5.04895
5.033
5.01727
5.00174
4.98643
4.97134
4.95646
4.94181
4.92738
4.91317
4.89919
4.88543
4.87191
4.85862
4.84557
4.83276
4.82018
4.80785
4.79576
4.78391
4.77232
4.76097
4.74988
4.73904
4.72846
4.71813
4.70807
4.69827
4.68873
4.67946
4.67046
4.66173
4.65327
4.64509
4.63718
4.62954
4.62219
4.61512
4.60832
4.60182
4.59559
4.58966
4.58401
4.57865
4.57358
4.56881
4.56432
4.56013
4.55624
4.55264
4.54934
4.54634
4.54363
4.54122
4.53911
4.53731
4.5358
4.53459
4.53369
4.53309
4.53279
4.53279
4.53309
4.53369
4.5346
4.5358
4.53731
4.53912
4.54122
4.54363
4.54634
4.54934
4.55264
4.55624
4.56014
4.56433
4.56881
4.57359
4.57866
4.58401
4.58966
4.5956
4.60182
4.60833
4.61512
4.62219
4.62955
4.63718
4.64509
4.65328
4.66174
4.67047
4.67947
4.68874
4.69827
4.70808
4.71814
4.72846
4.73905
4.74988
4.76098
4.77232
4.78392
4.79576
4.80785
4.82019
4.83276
4.84558
4.85863
4.87192
4.88544
4.89919
4.91317
4.92738
4.94182
4.95647
4.97135
4.98644
5.00175
5.01727
5.03301
5.04895
5.06511
5.08147
5.09803
5.11479
5.13176
5.14892
5.16627
5.18382
5.20157
5.2195
5.23762
5.25593
5.27442
5.29309
5.31194
5.33098
5.35019
5.36957
5.38913
5.40886
5.42876
5.44883
5.46907
5.48947
5.51004
5.53077
5.55166
5.57271
5.59392
5.61529
5.63681
5.65849
5.68032
5.7023
5.72443
5.74671
5.76914
5.79172
5.81444
5.83731
5.86032
5.88347
5.90676
5.9302
5.95377
5.97749
6.00134
6.02532
6.04945
6.07371
6.0981
6.12263
6.14729
6.17208
6.197
6.22206
6.24724
6.27256
6.298
6.32357
6.34928
6.3751
6.40106
6.42714
6.45335
6.47968
6.50614
6.53273
6.55944
6.58627
6.61323
6.64031
6.66752
6.69485
6.7223
6.74988
6.77758
6.8054
6.83335
6.86142
6.88961
6.91793
6.94637
6.97493
7.00362
7.03243
7.06137
7.09043
7.11961
7.14892
7.17835
7.2079
7.23759
7.26739
7.29733
7.32739
7.35758
7.38789
7.41833
7.4489
7.4796
7.51043
7.54138
7.57247
7.60369
7.63504
7.66652
7.69814
7.72989
7.76177
7.79379
7.82595
7.85824
7.89067
7.92323
7.95594
7.98879
8.02178
8.05491
8.08818
8.1216
8.15517
8.18888
8.22274
8.25675
8.2909
8.32521
8.35967
8.39429
8.42906
8.46399
8.49907
8.53432
8.56972
8.60529
8.64102
8.67692
8.71298
8.74921
8.78561
8.82218
8.85893
8.89585
8.93295
8.97022
9.00768
9.04532
9.08314
9.12115
9.15935
9.19774
9.23632
9.27509
9.31407
9.35324
9.39261
9.43218
9.47196
9.51195
9.55215
9.59256
9.63319
9.67403
9.7151
9.75638
9.7979
9.83964
9.88161
9.92382
9.96626
10.0089
10.0519
10.095
10.1385
10.1821
10.2261
10.2703
10.3147
10.3594
10.4044
10.4497
10.4952
10.541
10.5871
10.6335
10.6802
10.7271
10.7744
10.822
10.8698
10.918
10.9665
11.0153
11.0645
11.114
11.1638
11.2139
11.2644
11.3152
11.3664
11.418
11.4699
11.5221
11.5748
11.6278
11.6812
11.735
11.7892
11.8438
11.8988
11.9542
12.0101
12.0663
12.123
12.1801
12.2377
12.2957
12.3542
12.4132
12.4726
12.5325
12.5929
12.6538
12.7152
12.7771
12.8395
12.9024
12.9659
13.0299
13.0945
13.1596
13.2254
13.2916
13.3585
13.426
13.4941
13.5628
13.6321
13.7021
13.7727
13.844
13.916
13.9886
14.062
14.136
14.2108
14.2863
14.3625
14.4395
14.5173
14.5959
14.6752
14.7554
14.8364
14.9182
15.0009
15.0845
15.1689
15.2543
15.3406
15.4278
15.5159
15.6051
15.6952
15.7864
15.8785
15.9718
16.0661
16.1614
16.2579
16.3556
16.4543
16.5543
16.6554
16.7578
16.8614
16.9663
17.0725
17.18
17.2889
17.3992
17.5108
17.6239
17.7385
17.8545
17.9721
18.0913
18.212
18.3344
18.4584
18.5841
18.7116
18.8408
18.9719
19.1048
19.2396
19.3764
19.5151
19.6559
19.7988
19.9437
20.0909
20.2402
20.3919
20.5459
20.7022
20.8611
21.0224
21.1863
21.3528
21.522
21.694
21.8688
22.0466
22.2273
22.4111
22.598
22.7881
22.9816
23.1784
23.3787
23.5827
23.7902
24.0016
24.2169
24.4362
24.6595
24.8872
25.1191
25.3556
25.5966
25.8424
26.0931
26.3489
26.6098
26.8761
27.1479
27.4254
27.7088
27.9982
28.294
28.5961
28.905
29.2208
29.5437
29.874
30.2119
30.5578
30.9118
31.2743
31.6456
32.026
32.4159
32.8156
33.2254
33.6459
34.0772
34.5201
34.9747
35.4417
35.9216
36.4149
36.9221
37.4439
37.9808
38.5336
39.1029
39.6895
40.2943
40.9179
41.5614
42.2256
42.9117
43.6206
44.3535
45.1117
45.8965
46.7092
47.5514
48.4247
49.3308
50.2716
51.2491
52.2655
53.3231
54.4244
55.5722
56.7695
58.0194
59.3255
60.6916
62.1219
63.6209
65.1938
66.8459
68.5833
70.4129
72.3418
74.3785
76.532
78.8126
81.2315
83.8017
86.5376
89.4553
92.5734
95.913
99.4978
103.356
107.518
112.022
116.911
122.234
128.052
134.434
141.465
149.245
157.9
167.578
178.468
190.803
204.881
221.082
239.902
261.999
288.258
319.9
358.641
406.961
468.554
549.11
657.797
810.338
1036.83
1407.56
2136.99
4044.25
11304.3
64001
)
;

boundaryField
{
    top_wall
    {
        type            omegaWallFunction;
        blending        binomial;
        n               2;
        value           uniform 64001;
    }
    inlet
    {
        type            cyclic;
    }
    bot_wall
    {
        type            omegaWallFunction;
        blending        binomial;
        n               2;
        value           uniform 64001;
    }
    outlet
    {
        type            cyclic;
    }
    frontAndBack
    {
        type            empty;
    }
}


// ************************************************************************* //
