/*--------------------------------*- C++ -*----------------------------------*\
| =========                 |                                                 |
| \\      /  F ield         | OpenFOAM: The Open Source CFD Toolbox           |
|  \\    /   O peration     | Version:  2406                                  |
|   \\  /    A nd           | Website:  www.openfoam.com                      |
|    \\/     M anipulation  |                                                 |
\*---------------------------------------------------------------------------*/
FoamFile
{
    version     2.0;
    format      ascii;
    arch        "LSB;label=32;scalar=64";
    class       surfaceScalarField;
    location    "16.495";
    object      phi;
}
// * * * * * * * * * * * * * * * * * * * * * * * * * * * * * * * * * * * * * //

dimensions      [0 3 -1 0 0 0 0];

oriented        oriented;

internalField   nonuniform List<scalar> 
999
(
-1.21861e-18
-1.22028e-18
-1.22693e-18
-1.23868e-18
-1.22671e-18
-1.22629e-18
-1.22613e-18
-1.2321e-18
-1.177e-18
-1.18317e-18
-1.21401e-18
-1.20716e-18
-1.27024e-18
-1.26456e-18
-1.3032e-18
-1.30024e-18
-1.29437e-18
-1.28475e-18
-1.27538e-18
-1.26627e-18
-1.25796e-18
-1.25033e-18
-1.24328e-18
-1.2367e-18
-1.23053e-18
-1.22469e-18
-1.21912e-18
-1.21379e-18
-1.20866e-18
-1.2037e-18
-1.19889e-18
-1.19421e-18
-1.18965e-18
-1.1852e-18
-1.18085e-18
-1.1766e-18
-1.17244e-18
-1.16837e-18
-1.16438e-18
-1.16048e-18
-1.15666e-18
-1.15293e-18
-1.14927e-18
-1.14569e-18
-1.1422e-18
-1.13878e-18
-1.13543e-18
-1.13216e-18
-1.12897e-18
-1.12584e-18
-1.12278e-18
-1.1198e-18
-1.11687e-18
-1.11401e-18
-1.11121e-18
-1.10847e-18
-1.10579e-18
-1.10316e-18
-1.10058e-18
-1.09805e-18
-1.09557e-18
-1.09312e-18
-1.09072e-18
-1.08836e-18
-1.08604e-18
-1.08375e-18
-1.08149e-18
-1.07926e-18
-1.07705e-18
-1.07487e-18
-1.07272e-18
-1.07059e-18
-1.06847e-18
-1.06638e-18
-1.0643e-18
-1.06224e-18
-1.06019e-18
-1.05816e-18
-1.05615e-18
-1.05415e-18
-1.05216e-18
-1.05019e-18
-1.04824e-18
-1.04631e-18
-1.0444e-18
-1.04252e-18
-1.04066e-18
-1.03884e-18
-1.03706e-18
-1.03532e-18
-1.03364e-18
-1.03202e-18
-1.03047e-18
-1.029e-18
-1.02762e-18
-1.02635e-18
-1.0252e-18
-1.02418e-18
-1.02331e-18
-1.0226e-18
-1.02208e-18
-1.02176e-18
-1.02165e-18
-1.02178e-18
-1.02214e-18
-1.02276e-18
-1.02364e-18
-1.02479e-18
-1.02617e-18
-1.02772e-18
-1.02943e-18
-1.0314e-18
-1.0336e-18
-1.03601e-18
-1.03865e-18
-1.04149e-18
-1.04451e-18
-1.04767e-18
-1.05093e-18
-1.05423e-18
-1.0575e-18
-1.06068e-18
-1.06369e-18
-1.06642e-18
-1.06875e-18
-1.07055e-18
-1.07166e-18
-1.07193e-18
-1.07118e-18
-1.0692e-18
-1.06577e-18
-1.06061e-18
-1.05343e-18
-1.0439e-18
-1.03164e-18
-1.01618e-18
-9.96872e-19
-9.71759e-19
-9.41169e-19
-9.24825e-19
-8.75555e-19
-8.59132e-19
-8.28607e-19
-8.03448e-19
-7.83954e-19
-7.68208e-19
-7.556e-19
-7.45704e-19
-7.38241e-19
-7.32959e-19
-7.29657e-19
-7.28185e-19
-7.28438e-19
-7.30355e-19
-7.33882e-19
-7.39006e-19
-7.45718e-19
-7.54041e-19
-7.64027e-19
-7.75752e-19
-7.89313e-19
-8.04789e-19
-8.22275e-19
-8.41905e-19
-8.63819e-19
-8.8817e-19
-9.15158e-19
-9.45085e-19
-9.80699e-19
-1.01899e-18
-1.0623e-18
-1.07403e-18
-1.11657e-18
-1.15337e-18
-1.18695e-18
-1.21438e-18
-1.23845e-18
-1.25951e-18
-1.2778e-18
-1.29355e-18
-1.307e-18
-1.31836e-18
-1.32786e-18
-1.33572e-18
-1.34221e-18
-1.34759e-18
-1.35214e-18
-1.35618e-18
-1.36001e-18
-1.36401e-18
-1.36851e-18
-1.37388e-18
-1.38048e-18
-1.38874e-18
-1.39902e-18
-1.41169e-18
-1.42708e-18
-1.44547e-18
-1.46704e-18
-1.49183e-18
-1.52208e-18
-1.55526e-18
-1.58523e-18
-1.6618e-18
-1.69169e-18
-1.72468e-18
-1.75475e-18
-1.77934e-18
-1.80066e-18
-1.81874e-18
-1.83369e-18
-1.84571e-18
-1.85507e-18
-1.86205e-18
-1.86695e-18
-1.87004e-18
-1.87157e-18
-1.87178e-18
-1.87089e-18
-1.86909e-18
-1.86652e-18
-1.86334e-18
-1.85966e-18
-1.85555e-18
-1.85111e-18
-1.8464e-18
-1.84148e-18
-1.83638e-18
-1.83113e-18
-1.82576e-18
-1.82028e-18
-1.8147e-18
-1.80904e-18
-1.80328e-18
-1.7974e-18
-1.79142e-18
-1.78534e-18
-1.77921e-18
-1.77301e-18
-1.76676e-18
-1.76043e-18
-1.75401e-18
-1.74755e-18
-1.74104e-18
-1.73446e-18
-1.72781e-18
-1.72108e-18
-1.71428e-18
-1.70742e-18
-1.7005e-18
-1.69352e-18
-1.68649e-18
-1.67942e-18
-1.67231e-18
-1.66516e-18
-1.658e-18
-1.65081e-18
-1.64361e-18
-1.6364e-18
-1.62919e-18
-1.62198e-18
-1.61478e-18
-1.60759e-18
-1.60042e-18
-1.59326e-18
-1.58614e-18
-1.57903e-18
-1.57196e-18
-1.56492e-18
-1.55792e-18
-1.55095e-18
-1.54402e-18
-1.53713e-18
-1.53028e-18
-1.52347e-18
-1.51671e-18
-1.50999e-18
-1.50332e-18
-1.49669e-18
-1.49011e-18
-1.48357e-18
-1.47708e-18
-1.47064e-18
-1.46424e-18
-1.45789e-18
-1.45158e-18
-1.44532e-18
-1.4391e-18
-1.43293e-18
-1.42681e-18
-1.42072e-18
-1.41468e-18
-1.40869e-18
-1.40273e-18
-1.39682e-18
-1.39095e-18
-1.38512e-18
-1.37932e-18
-1.37357e-18
-1.36786e-18
-1.36218e-18
-1.35654e-18
-1.35094e-18
-1.34538e-18
-1.33985e-18
-1.33435e-18
-1.32889e-18
-1.32346e-18
-1.31807e-18
-1.3127e-18
-1.30737e-18
-1.30207e-18
-1.2968e-18
-1.29157e-18
-1.28636e-18
-1.28118e-18
-1.27602e-18
-1.2709e-18
-1.2658e-18
-1.26073e-18
-1.25569e-18
-1.25067e-18
-1.24568e-18
-1.24071e-18
-1.23577e-18
-1.23085e-18
-1.22596e-18
-1.22109e-18
-1.21624e-18
-1.21141e-18
-1.20661e-18
-1.20183e-18
-1.19706e-18
-1.19232e-18
-1.1876e-18
-1.1829e-18
-1.17822e-18
-1.17356e-18
-1.16892e-18
-1.1643e-18
-1.1597e-18
-1.15511e-18
-1.15054e-18
-1.14599e-18
-1.14146e-18
-1.13694e-18
-1.13244e-18
-1.12796e-18
-1.12349e-18
-1.11904e-18
-1.11461e-18
-1.11019e-18
-1.10578e-18
-1.10139e-18
-1.09701e-18
-1.09265e-18
-1.0883e-18
-1.08397e-18
-1.07965e-18
-1.07534e-18
-1.07104e-18
-1.06676e-18
-1.06249e-18
-1.05823e-18
-1.05399e-18
-1.04975e-18
-1.04553e-18
-1.04132e-18
-1.03712e-18
-1.03293e-18
-1.02875e-18
-1.02458e-18
-1.02042e-18
-1.01627e-18
-1.01213e-18
-1.008e-18
-1.00388e-18
-9.99774e-19
-9.95672e-19
-9.91579e-19
-9.87494e-19
-9.83418e-19
-9.7935e-19
-9.7529e-19
-9.71238e-19
-9.67194e-19
-9.63156e-19
-9.59127e-19
-9.55104e-19
-9.51088e-19
-9.47079e-19
-9.43076e-19
-9.3908e-19
-9.3509e-19
-9.31106e-19
-9.27128e-19
-9.23156e-19
-9.19189e-19
-9.15228e-19
-9.11272e-19
-9.07322e-19
-9.03376e-19
-8.99436e-19
-8.955e-19
-8.91569e-19
-8.87642e-19
-8.8372e-19
-8.79802e-19
-8.75888e-19
-8.71978e-19
-8.68072e-19
-8.6417e-19
-8.60272e-19
-8.56377e-19
-8.52486e-19
-8.48599e-19
-8.44715e-19
-8.40834e-19
-8.36956e-19
-8.33081e-19
-8.2921e-19
-8.25341e-19
-8.21476e-19
-8.17613e-19
-8.13753e-19
-8.09896e-19
-8.06042e-19
-8.0219e-19
-7.98341e-19
-7.94494e-19
-7.9065e-19
-7.86809e-19
-7.8297e-19
-7.79134e-19
-7.753e-19
-7.71468e-19
-7.6764e-19
-7.63813e-19
-7.59989e-19
-7.56168e-19
-7.52349e-19
-7.48532e-19
-7.44718e-19
-7.40907e-19
-7.37098e-19
-7.33292e-19
-7.29488e-19
-7.25688e-19
-7.2189e-19
-7.18095e-19
-7.14302e-19
-7.10513e-19
-7.06727e-19
-7.02943e-19
-6.99163e-19
-6.95387e-19
-6.91613e-19
-6.87843e-19
-6.84077e-19
-6.80314e-19
-6.76555e-19
-6.728e-19
-6.69048e-19
-6.65301e-19
-6.61558e-19
-6.57819e-19
-6.54085e-19
-6.50355e-19
-6.4663e-19
-6.4291e-19
-6.39195e-19
-6.35484e-19
-6.3178e-19
-6.2808e-19
-6.24386e-19
-6.20698e-19
-6.17015e-19
-6.13338e-19
-6.09667e-19
-6.06003e-19
-6.02345e-19
-5.9869e-19
-5.95041e-19
-5.91397e-19
-5.87759e-19
-5.84124e-19
-5.80492e-19
-5.76865e-19
-5.73243e-19
-5.69628e-19
-5.66017e-19
-5.62413e-19
-5.58816e-19
-5.55225e-19
-5.51642e-19
-5.48065e-19
-5.44495e-19
-5.40933e-19
-5.37378e-19
-5.3383e-19
-5.30291e-19
-5.26759e-19
-5.23235e-19
-5.1972e-19
-5.16212e-19
-5.12714e-19
-5.09224e-19
-5.05745e-19
-5.02276e-19
-4.98816e-19
-4.95366e-19
-4.91925e-19
-4.88492e-19
-4.85068e-19
-4.81653e-19
-4.78247e-19
-4.7485e-19
-4.71463e-19
-4.68086e-19
-4.6472e-19
-4.61368e-19
-4.5803e-19
-4.54707e-19
-4.51398e-19
-4.48104e-19
-4.44824e-19
-4.41559e-19
-4.38308e-19
-4.35073e-19
-4.31853e-19
-4.28648e-19
-4.25459e-19
-4.22285e-19
-4.19126e-19
-4.15983e-19
-4.12856e-19
-4.09745e-19
-4.06649e-19
-4.03569e-19
-4.00506e-19
-3.97458e-19
-3.94427e-19
-3.91412e-19
-3.88413e-19
-3.8543e-19
-3.82464e-19
-3.79514e-19
-3.76581e-19
-3.73664e-19
-3.70763e-19
-3.67879e-19
-3.65012e-19
-3.62161e-19
-3.59327e-19
-3.5651e-19
-3.53709e-19
-3.50924e-19
-3.48157e-19
-3.45406e-19
-3.42671e-19
-3.39954e-19
-3.37253e-19
-3.34568e-19
-3.319e-19
-3.29249e-19
-3.26614e-19
-3.23996e-19
-3.21395e-19
-3.1881e-19
-3.16241e-19
-3.13689e-19
-3.11153e-19
-3.08634e-19
-3.06131e-19
-3.03645e-19
-3.01174e-19
-2.9872e-19
-2.96282e-19
-2.93861e-19
-2.91455e-19
-2.89066e-19
-2.86692e-19
-2.84335e-19
-2.81993e-19
-2.79667e-19
-2.77357e-19
-2.75063e-19
-2.72785e-19
-2.70522e-19
-2.68275e-19
-2.66043e-19
-2.63827e-19
-2.61626e-19
-2.5944e-19
-2.5727e-19
-2.55115e-19
-2.52975e-19
-2.50851e-19
-2.48741e-19
-2.46646e-19
-2.44566e-19
-2.42501e-19
-2.40451e-19
-2.38416e-19
-2.36395e-19
-2.34388e-19
-2.32396e-19
-2.30419e-19
-2.28456e-19
-2.26507e-19
-2.24572e-19
-2.22652e-19
-2.20745e-19
-2.18853e-19
-2.16974e-19
-2.15109e-19
-2.13258e-19
-2.11421e-19
-2.09597e-19
-2.07787e-19
-2.05991e-19
-2.04207e-19
-2.02438e-19
-2.00681e-19
-1.98938e-19
-1.97207e-19
-1.9549e-19
-1.93786e-19
-1.92094e-19
-1.90416e-19
-1.8875e-19
-1.87097e-19
-1.85456e-19
-1.83828e-19
-1.82213e-19
-1.8061e-19
-1.79019e-19
-1.7744e-19
-1.75874e-19
-1.7432e-19
-1.72777e-19
-1.71247e-19
-1.69729e-19
-1.68222e-19
-1.66727e-19
-1.65244e-19
-1.63772e-19
-1.62312e-19
-1.60864e-19
-1.59427e-19
-1.58001e-19
-1.56586e-19
-1.55183e-19
-1.5379e-19
-1.52409e-19
-1.51039e-19
-1.49679e-19
-1.48331e-19
-1.46993e-19
-1.45666e-19
-1.44349e-19
-1.43043e-19
-1.41748e-19
-1.40463e-19
-1.39188e-19
-1.37924e-19
-1.3667e-19
-1.35426e-19
-1.34192e-19
-1.32968e-19
-1.31755e-19
-1.30551e-19
-1.29357e-19
-1.28172e-19
-1.26998e-19
-1.25833e-19
-1.24677e-19
-1.23531e-19
-1.22395e-19
-1.21268e-19
-1.2015e-19
-1.19042e-19
-1.17943e-19
-1.16853e-19
-1.15772e-19
-1.147e-19
-1.13637e-19
-1.12583e-19
-1.11538e-19
-1.10501e-19
-1.09473e-19
-1.08454e-19
-1.07444e-19
-1.06442e-19
-1.05448e-19
-1.04463e-19
-1.03487e-19
-1.02518e-19
-1.01558e-19
-1.00606e-19
-9.96627e-20
-9.8727e-20
-9.77993e-20
-9.68796e-20
-9.59678e-20
-9.50639e-20
-9.41678e-20
-9.32794e-20
-9.23988e-20
-9.15257e-20
-9.06603e-20
-8.98023e-20
-8.89519e-20
-8.81088e-20
-8.72732e-20
-8.64448e-20
-8.56237e-20
-8.48099e-20
-8.40032e-20
-8.32036e-20
-8.2411e-20
-8.16255e-20
-8.08469e-20
-8.00752e-20
-7.93103e-20
-7.85523e-20
-7.7801e-20
-7.70564e-20
-7.63185e-20
-7.55872e-20
-7.48624e-20
-7.41442e-20
-7.34324e-20
-7.2727e-20
-7.2028e-20
-7.13353e-20
-7.06488e-20
-6.99686e-20
-6.92946e-20
-6.86267e-20
-6.79648e-20
-6.7309e-20
-6.66592e-20
-6.60154e-20
-6.53774e-20
-6.47453e-20
-6.4119e-20
-6.34985e-20
-6.28837e-20
-6.22746e-20
-6.16711e-20
-6.10732e-20
-6.04809e-20
-5.9894e-20
-5.93127e-20
-5.87367e-20
-5.81661e-20
-5.76009e-20
-5.7041e-20
-5.64863e-20
-5.59368e-20
-5.53925e-20
-5.48533e-20
-5.43192e-20
-5.37902e-20
-5.32662e-20
-5.27471e-20
-5.2233e-20
-5.17238e-20
-5.12194e-20
-5.07199e-20
-5.02251e-20
-4.97351e-20
-4.92497e-20
-4.87691e-20
-4.8293e-20
-4.78216e-20
-4.73547e-20
-4.68923e-20
-4.64344e-20
-4.59809e-20
-4.55318e-20
-4.50871e-20
-4.46468e-20
-4.42107e-20
-4.37789e-20
-4.33513e-20
-4.2928e-20
-4.25088e-20
-4.20937e-20
-4.16827e-20
-4.12757e-20
-4.08728e-20
-4.04739e-20
-4.00789e-20
-3.96879e-20
-3.93007e-20
-3.89174e-20
-3.8538e-20
-3.81623e-20
-3.77904e-20
-3.74222e-20
-3.70577e-20
-3.66969e-20
-3.63398e-20
-3.59862e-20
-3.56362e-20
-3.52898e-20
-3.49468e-20
-3.46074e-20
-3.42714e-20
-3.39389e-20
-3.36097e-20
-3.32839e-20
-3.29615e-20
-3.26423e-20
-3.23264e-20
-3.20138e-20
-3.17045e-20
-3.13983e-20
-3.10953e-20
-3.07954e-20
-3.04986e-20
-3.0205e-20
-2.99143e-20
-2.96268e-20
-2.93422e-20
-2.90606e-20
-2.8782e-20
-2.85063e-20
-2.82334e-20
-2.79635e-20
-2.76964e-20
-2.74322e-20
-2.71707e-20
-2.69121e-20
-2.66561e-20
-2.64029e-20
-2.61524e-20
-2.59046e-20
-2.56595e-20
-2.54169e-20
-2.5177e-20
-2.49397e-20
-2.47049e-20
-2.44726e-20
-2.42429e-20
-2.40156e-20
-2.37908e-20
-2.35685e-20
-2.33486e-20
-2.31311e-20
-2.29159e-20
-2.27032e-20
-2.24927e-20
-2.22846e-20
-2.20787e-20
-2.18752e-20
-2.16738e-20
-2.14747e-20
-2.12778e-20
-2.10831e-20
-2.08906e-20
-2.07002e-20
-2.05119e-20
-2.03258e-20
-2.01417e-20
-1.99596e-20
-1.97797e-20
-1.96017e-20
-1.94258e-20
-1.92518e-20
-1.90798e-20
-1.89098e-20
-1.87416e-20
-1.85754e-20
-1.84111e-20
-1.82487e-20
-1.80881e-20
-1.79293e-20
-1.77723e-20
-1.76172e-20
-1.74638e-20
-1.73122e-20
-1.71623e-20
-1.70142e-20
-1.68678e-20
-1.6723e-20
-1.65799e-20
-1.64385e-20
-1.62987e-20
-1.61606e-20
-1.6024e-20
-1.5889e-20
-1.57556e-20
-1.56238e-20
-1.54934e-20
-1.53646e-20
-1.52373e-20
-1.51115e-20
-1.49871e-20
-1.48642e-20
-1.47427e-20
-1.46226e-20
-1.45039e-20
-1.43866e-20
-1.42706e-20
-1.4156e-20
-1.40427e-20
-1.39308e-20
-1.38201e-20
-1.37107e-20
-1.36026e-20
-1.34957e-20
-1.339e-20
-1.32855e-20
-1.31822e-20
-1.30801e-20
-1.29792e-20
-1.28793e-20
-1.27806e-20
-1.2683e-20
-1.25865e-20
-1.2491e-20
-1.23965e-20
-1.23031e-20
-1.22107e-20
-1.21193e-20
-1.20288e-20
-1.19393e-20
-1.18507e-20
-1.17629e-20
-1.16761e-20
-1.15901e-20
-1.15049e-20
-1.14206e-20
-1.1337e-20
-1.12542e-20
-1.11721e-20
-1.10908e-20
-1.10101e-20
-1.093e-20
-1.08506e-20
-1.07718e-20
-1.06935e-20
-1.06158e-20
-1.05385e-20
-1.04617e-20
-1.03853e-20
-1.03093e-20
-1.02337e-20
-1.01583e-20
-1.00832e-20
-1.00083e-20
-9.93352e-21
-9.85885e-21
-9.78423e-21
-9.70958e-21
-9.63483e-21
-9.55993e-21
-9.4848e-21
-9.40934e-21
-9.33348e-21
-9.25711e-21
-9.18014e-21
-9.10244e-21
-9.02389e-21
-8.94436e-21
-8.8637e-21
-8.78173e-21
-8.69827e-21
-8.61311e-21
-8.52602e-21
-8.43673e-21
-8.34495e-21
-8.25033e-21
-8.15249e-21
-8.05097e-21
-7.94525e-21
-7.8347e-21
-7.71861e-21
-7.5961e-21
-7.46612e-21
-7.3274e-21
-7.17833e-21
-7.01695e-21
-6.84071e-21
-6.64633e-21
-6.42948e-21
-6.18431e-21
-5.90277e-21
-5.57363e-21
-5.18119e-21
-4.7045e-21
-4.12028e-21
-3.41652e-21
-2.61246e-21
-1.75366e-21
-8.78036e-22
)
;

boundaryField
{
    top_wall
    {
        type            calculated;
        value           uniform 0;
    }
    inlet
    {
        type            cyclic;
        value           nonuniform List<scalar> 
1000
(
-2.37063e-05
-7.10088e-05
-0.00011796
-0.00016324
-0.000204098
-0.000238429
-0.000266319
-0.000289014
-0.000307788
-0.000323624
-0.000337227
-0.000349097
-0.000359594
-0.000368985
-0.000377467
-0.000385191
-0.000392277
-0.000398816
-0.000404885
-0.000410543
-0.000415842
-0.000420822
-0.000425519
-0.000429963
-0.000434178
-0.000438186
-0.000442007
-0.000445657
-0.000449149
-0.000452498
-0.000455714
-0.000458807
-0.000461786
-0.000464658
-0.000467433
-0.000470114
-0.00047271
-0.000475224
-0.000477662
-0.000480029
-0.000482328
-0.000484563
-0.000486737
-0.000488854
-0.000490917
-0.000492928
-0.00049489
-0.000496805
-0.000498676
-0.000500504
-0.000502291
-0.00050404
-0.000505751
-0.000507427
-0.000509068
-0.000510677
-0.000512254
-0.000513801
-0.000515319
-0.000516809
-0.000518271
-0.000519708
-0.000521119
-0.000522506
-0.00052387
-0.000525211
-0.000526531
-0.000527829
-0.000529107
-0.000530364
-0.000531603
-0.000532823
-0.000534025
-0.000535209
-0.000536377
-0.000537528
-0.000538663
-0.000539782
-0.000540886
-0.000541976
-0.000543051
-0.000544112
-0.00054516
-0.000546194
-0.000547215
-0.000548224
-0.000549221
-0.000550206
-0.000551179
-0.000552141
-0.000553091
-0.000554031
-0.00055496
-0.000555879
-0.000556788
-0.000557687
-0.000558577
-0.000559457
-0.000560327
-0.000561189
-0.000562042
-0.000562886
-0.000563722
-0.000564549
-0.000565369
-0.00056618
-0.000566984
-0.00056778
-0.000568569
-0.00056935
-0.000570124
-0.000570891
-0.000571651
-0.000572405
-0.000573151
-0.000573891
-0.000574625
-0.000575353
-0.000576074
-0.000576789
-0.000577498
-0.000578202
-0.000578899
-0.000579591
-0.000580278
-0.000580959
-0.000581634
-0.000582305
-0.00058297
-0.00058363
-0.000584285
-0.000584935
-0.00058558
-0.00058622
-0.000586856
-0.000587487
-0.000588113
-0.000588735
-0.000589353
-0.000589966
-0.000590575
-0.000591179
-0.00059178
-0.000592376
-0.000592968
-0.000593557
-0.000594141
-0.000594721
-0.000595298
-0.000595871
-0.00059644
-0.000597005
-0.000597567
-0.000598125
-0.00059868
-0.000599231
-0.000599779
-0.000600324
-0.000600865
-0.000601403
-0.000601937
-0.000602468
-0.000602997
-0.000603522
-0.000604043
-0.000604562
-0.000605078
-0.000605591
-0.000606101
-0.000606608
-0.000607112
-0.000607613
-0.000608112
-0.000608607
-0.0006091
-0.00060959
-0.000610078
-0.000610562
-0.000611045
-0.000611524
-0.000612001
-0.000612476
-0.000612948
-0.000613417
-0.000613884
-0.000614349
-0.000614811
-0.000615271
-0.000615728
-0.000616183
-0.000616636
-0.000617086
-0.000617534
-0.00061798
-0.000618424
-0.000618865
-0.000619305
-0.000619742
-0.000620177
-0.00062061
-0.00062104
-0.000621469
-0.000621896
-0.00062232
-0.000622743
-0.000623163
-0.000623582
-0.000623998
-0.000624413
-0.000624825
-0.000625236
-0.000625645
-0.000626052
-0.000626457
-0.00062686
-0.000627261
-0.000627661
-0.000628058
-0.000628454
-0.000628848
-0.000629241
-0.000629631
-0.00063002
-0.000630407
-0.000630792
-0.000631176
-0.000631558
-0.000631938
-0.000632317
-0.000632693
-0.000633069
-0.000633442
-0.000633814
-0.000634184
-0.000634553
-0.00063492
-0.000635286
-0.00063565
-0.000636012
-0.000636373
-0.000636732
-0.00063709
-0.000637446
-0.000637801
-0.000638154
-0.000638506
-0.000638856
-0.000639205
-0.000639552
-0.000639898
-0.000640242
-0.000640585
-0.000640927
-0.000641267
-0.000641605
-0.000641942
-0.000642278
-0.000642612
-0.000642945
-0.000643277
-0.000643607
-0.000643936
-0.000644263
-0.000644589
-0.000644914
-0.000645237
-0.000645559
-0.00064588
-0.000646199
-0.000646517
-0.000646834
-0.000647149
-0.000647463
-0.000647776
-0.000648088
-0.000648398
-0.000648707
-0.000649014
-0.00064932
-0.000649625
-0.000649929
-0.000650232
-0.000650533
-0.000650833
-0.000651132
-0.000651429
-0.000651725
-0.00065202
-0.000652314
-0.000652606
-0.000652898
-0.000653188
-0.000653477
-0.000653764
-0.000654051
-0.000654336
-0.00065462
-0.000654902
-0.000655184
-0.000655464
-0.000655743
-0.000656021
-0.000656298
-0.000656574
-0.000656848
-0.000657121
-0.000657393
-0.000657664
-0.000657934
-0.000658202
-0.000658469
-0.000658735
-0.000659
-0.000659264
-0.000659527
-0.000659788
-0.000660048
-0.000660308
-0.000660566
-0.000660822
-0.000661078
-0.000661332
-0.000661586
-0.000661838
-0.000662089
-0.000662339
-0.000662587
-0.000662835
-0.000663081
-0.000663327
-0.000663571
-0.000663814
-0.000664055
-0.000664296
-0.000664536
-0.000664774
-0.000665011
-0.000665247
-0.000665482
-0.000665716
-0.000665949
-0.00066618
-0.00066641
-0.00066664
-0.000666868
-0.000667095
-0.00066732
-0.000667545
-0.000667768
-0.000667991
-0.000668212
-0.000668432
-0.000668651
-0.000668868
-0.000669085
-0.0006693
-0.000669514
-0.000669727
-0.000669939
-0.00067015
-0.000670359
-0.000670568
-0.000670775
-0.000670981
-0.000671186
-0.00067139
-0.000671592
-0.000671794
-0.000671994
-0.000672193
-0.000672391
-0.000672587
-0.000672783
-0.000672977
-0.00067317
-0.000673362
-0.000673553
-0.000673742
-0.000673931
-0.000674118
-0.000674304
-0.000674488
-0.000674672
-0.000674854
-0.000675035
-0.000675215
-0.000675393
-0.000675571
-0.000675747
-0.000675922
-0.000676095
-0.000676268
-0.000676439
-0.000676609
-0.000676777
-0.000676945
-0.000677111
-0.000677276
-0.000677439
-0.000677602
-0.000677763
-0.000677922
-0.000678081
-0.000678238
-0.000678394
-0.000678548
-0.000678701
-0.000678853
-0.000679004
-0.000679153
-0.000679301
-0.000679447
-0.000679593
-0.000679737
-0.000679879
-0.00068002
-0.00068016
-0.000680298
-0.000680435
-0.000680571
-0.000680705
-0.000680838
-0.000680969
-0.000681099
-0.000681228
-0.000681355
-0.000681481
-0.000681605
-0.000681728
-0.000681849
-0.000681969
-0.000682088
-0.000682205
-0.00068232
-0.000682434
-0.000682547
-0.000682658
-0.000682767
-0.000682875
-0.000682982
-0.000683087
-0.00068319
-0.000683292
-0.000683392
-0.000683491
-0.000683588
-0.000683683
-0.000683777
-0.00068387
-0.00068396
-0.000684049
-0.000684137
-0.000684223
-0.000684307
-0.00068439
-0.000684471
-0.00068455
-0.000684627
-0.000684703
-0.000684778
-0.00068485
-0.000684921
-0.00068499
-0.000685058
-0.000685123
-0.000685187
-0.000685249
-0.00068531
-0.000685369
-0.000685426
-0.000685481
-0.000685534
-0.000685586
-0.000685636
-0.000685684
-0.00068573
-0.000685775
-0.000685817
-0.000685858
-0.000685897
-0.000685935
-0.00068597
-0.000686003
-0.000686035
-0.000686065
-0.000686093
-0.000686119
-0.000686144
-0.000686166
-0.000686187
-0.000686205
-0.000686222
-0.000686237
-0.00068625
-0.000686262
-0.000686271
-0.000686279
-0.000686284
-0.000686288
-0.00068629
-0.00068629
-0.000686288
-0.000686284
-0.000686279
-0.000686271
-0.000686262
-0.00068625
-0.000686237
-0.000686222
-0.000686205
-0.000686187
-0.000686166
-0.000686144
-0.000686119
-0.000686093
-0.000686065
-0.000686035
-0.000686003
-0.00068597
-0.000685935
-0.000685897
-0.000685858
-0.000685817
-0.000685775
-0.00068573
-0.000685684
-0.000685636
-0.000685586
-0.000685534
-0.000685481
-0.000685426
-0.000685369
-0.00068531
-0.000685249
-0.000685187
-0.000685123
-0.000685058
-0.00068499
-0.000684921
-0.00068485
-0.000684778
-0.000684703
-0.000684627
-0.00068455
-0.000684471
-0.00068439
-0.000684307
-0.000684223
-0.000684137
-0.00068405
-0.00068396
-0.00068387
-0.000683777
-0.000683683
-0.000683588
-0.000683491
-0.000683392
-0.000683292
-0.00068319
-0.000683087
-0.000682982
-0.000682875
-0.000682767
-0.000682658
-0.000682547
-0.000682434
-0.00068232
-0.000682205
-0.000682088
-0.000681969
-0.000681849
-0.000681728
-0.000681605
-0.000681481
-0.000681355
-0.000681228
-0.000681099
-0.000680969
-0.000680838
-0.000680705
-0.000680571
-0.000680435
-0.000680298
-0.00068016
-0.00068002
-0.000679879
-0.000679737
-0.000679593
-0.000679448
-0.000679301
-0.000679153
-0.000679004
-0.000678853
-0.000678701
-0.000678548
-0.000678394
-0.000678238
-0.000678081
-0.000677922
-0.000677763
-0.000677602
-0.000677439
-0.000677276
-0.000677111
-0.000676945
-0.000676778
-0.000676609
-0.000676439
-0.000676268
-0.000676096
-0.000675922
-0.000675747
-0.000675571
-0.000675394
-0.000675215
-0.000675035
-0.000674854
-0.000674672
-0.000674488
-0.000674304
-0.000674118
-0.000673931
-0.000673742
-0.000673553
-0.000673362
-0.00067317
-0.000672977
-0.000672783
-0.000672588
-0.000672391
-0.000672193
-0.000671994
-0.000671794
-0.000671592
-0.00067139
-0.000671186
-0.000670981
-0.000670775
-0.000670568
-0.00067036
-0.00067015
-0.000669939
-0.000669727
-0.000669514
-0.0006693
-0.000669085
-0.000668868
-0.000668651
-0.000668432
-0.000668212
-0.000667991
-0.000667768
-0.000667545
-0.00066732
-0.000667095
-0.000666868
-0.00066664
-0.00066641
-0.00066618
-0.000665949
-0.000665716
-0.000665482
-0.000665247
-0.000665011
-0.000664774
-0.000664536
-0.000664296
-0.000664056
-0.000663814
-0.000663571
-0.000663327
-0.000663081
-0.000662835
-0.000662587
-0.000662339
-0.000662089
-0.000661838
-0.000661586
-0.000661332
-0.000661078
-0.000660822
-0.000660566
-0.000660308
-0.000660048
-0.000659788
-0.000659527
-0.000659264
-0.000659
-0.000658735
-0.000658469
-0.000658202
-0.000657934
-0.000657664
-0.000657393
-0.000657121
-0.000656848
-0.000656574
-0.000656298
-0.000656021
-0.000655743
-0.000655464
-0.000655184
-0.000654902
-0.00065462
-0.000654336
-0.000654051
-0.000653764
-0.000653477
-0.000653188
-0.000652898
-0.000652606
-0.000652314
-0.00065202
-0.000651725
-0.000651429
-0.000651132
-0.000650833
-0.000650533
-0.000650232
-0.000649929
-0.000649626
-0.000649321
-0.000649014
-0.000648707
-0.000648398
-0.000648088
-0.000647776
-0.000647463
-0.000647149
-0.000646834
-0.000646517
-0.000646199
-0.00064588
-0.000645559
-0.000645237
-0.000644914
-0.000644589
-0.000644263
-0.000643936
-0.000643607
-0.000643277
-0.000642945
-0.000642612
-0.000642278
-0.000641942
-0.000641605
-0.000641267
-0.000640927
-0.000640585
-0.000640242
-0.000639898
-0.000639552
-0.000639205
-0.000638856
-0.000638506
-0.000638154
-0.000637801
-0.000637446
-0.00063709
-0.000636732
-0.000636373
-0.000636012
-0.00063565
-0.000635286
-0.00063492
-0.000634553
-0.000634184
-0.000633814
-0.000633442
-0.000633069
-0.000632693
-0.000632316
-0.000631938
-0.000631558
-0.000631176
-0.000630792
-0.000630407
-0.00063002
-0.000629631
-0.000629241
-0.000628848
-0.000628454
-0.000628058
-0.000627661
-0.000627261
-0.00062686
-0.000626457
-0.000626052
-0.000625645
-0.000625236
-0.000624825
-0.000624413
-0.000623998
-0.000623582
-0.000623163
-0.000622743
-0.00062232
-0.000621896
-0.000621469
-0.00062104
-0.00062061
-0.000620177
-0.000619742
-0.000619305
-0.000618865
-0.000618424
-0.00061798
-0.000617534
-0.000617086
-0.000616636
-0.000616183
-0.000615728
-0.000615271
-0.000614811
-0.000614349
-0.000613884
-0.000613417
-0.000612948
-0.000612476
-0.000612001
-0.000611524
-0.000611045
-0.000610562
-0.000610078
-0.00060959
-0.0006091
-0.000608607
-0.000608111
-0.000607613
-0.000607112
-0.000606608
-0.000606101
-0.000605591
-0.000605078
-0.000604562
-0.000604043
-0.000603522
-0.000602997
-0.000602468
-0.000601937
-0.000601403
-0.000600865
-0.000600324
-0.000599779
-0.000599231
-0.00059868
-0.000598125
-0.000597567
-0.000597005
-0.00059644
-0.000595871
-0.000595298
-0.000594721
-0.000594141
-0.000593556
-0.000592968
-0.000592376
-0.00059178
-0.000591179
-0.000590575
-0.000589966
-0.000589353
-0.000588735
-0.000588113
-0.000587487
-0.000586856
-0.00058622
-0.00058558
-0.000584935
-0.000584285
-0.00058363
-0.00058297
-0.000582304
-0.000581634
-0.000580959
-0.000580278
-0.000579591
-0.000578899
-0.000578202
-0.000577498
-0.000576789
-0.000576074
-0.000575352
-0.000574625
-0.000573891
-0.000573151
-0.000572404
-0.000571651
-0.000570891
-0.000570124
-0.00056935
-0.000568569
-0.00056778
-0.000566984
-0.00056618
-0.000565369
-0.000564549
-0.000563722
-0.000562886
-0.000562042
-0.000561189
-0.000560327
-0.000559456
-0.000558577
-0.000557687
-0.000556788
-0.000555879
-0.00055496
-0.000554031
-0.000553091
-0.000552141
-0.000551179
-0.000550206
-0.000549221
-0.000548224
-0.000547215
-0.000546194
-0.000545159
-0.000544112
-0.000543051
-0.000541976
-0.000540886
-0.000539782
-0.000538663
-0.000537528
-0.000536377
-0.000535209
-0.000534025
-0.000532823
-0.000531603
-0.000530364
-0.000529106
-0.000527829
-0.000526531
-0.000525211
-0.00052387
-0.000522506
-0.000521119
-0.000519708
-0.000518271
-0.000516808
-0.000515319
-0.000513801
-0.000512254
-0.000510677
-0.000509068
-0.000507427
-0.000505751
-0.00050404
-0.000502291
-0.000500504
-0.000498676
-0.000496805
-0.00049489
-0.000492928
-0.000490917
-0.000488854
-0.000486737
-0.000484563
-0.000482328
-0.000480029
-0.000477662
-0.000475224
-0.00047271
-0.000470114
-0.000467433
-0.000464658
-0.000461786
-0.000458807
-0.000455714
-0.000452498
-0.000449149
-0.000445657
-0.000442007
-0.000438186
-0.000434178
-0.000429962
-0.000425519
-0.000420822
-0.000415842
-0.000410543
-0.000404885
-0.000398816
-0.000392276
-0.000385191
-0.000377466
-0.000368985
-0.000359594
-0.000349096
-0.000337227
-0.000323624
-0.000307788
-0.000289014
-0.000266319
-0.000238428
-0.000204098
-0.00016324
-0.00011796
-7.10087e-05
-2.37063e-05
)
;
    }
    bot_wall
    {
        type            calculated;
        value           uniform 0;
    }
    outlet
    {
        type            cyclic;
        value           nonuniform List<scalar> 
1000
(
2.37063e-05
7.10088e-05
0.00011796
0.00016324
0.000204098
0.000238429
0.000266319
0.000289014
0.000307788
0.000323624
0.000337227
0.000349097
0.000359594
0.000368985
0.000377467
0.000385191
0.000392277
0.000398816
0.000404885
0.000410543
0.000415842
0.000420822
0.000425519
0.000429963
0.000434178
0.000438186
0.000442007
0.000445657
0.000449149
0.000452498
0.000455714
0.000458807
0.000461786
0.000464658
0.000467433
0.000470114
0.00047271
0.000475224
0.000477662
0.000480029
0.000482328
0.000484563
0.000486737
0.000488854
0.000490917
0.000492928
0.00049489
0.000496805
0.000498676
0.000500504
0.000502291
0.00050404
0.000505751
0.000507427
0.000509068
0.000510677
0.000512254
0.000513801
0.000515319
0.000516809
0.000518271
0.000519708
0.000521119
0.000522506
0.00052387
0.000525211
0.000526531
0.000527829
0.000529107
0.000530364
0.000531603
0.000532823
0.000534025
0.000535209
0.000536377
0.000537528
0.000538663
0.000539782
0.000540886
0.000541976
0.000543051
0.000544112
0.00054516
0.000546194
0.000547215
0.000548224
0.000549221
0.000550206
0.000551179
0.000552141
0.000553091
0.000554031
0.00055496
0.000555879
0.000556788
0.000557687
0.000558577
0.000559457
0.000560327
0.000561189
0.000562042
0.000562886
0.000563722
0.000564549
0.000565369
0.00056618
0.000566984
0.00056778
0.000568569
0.00056935
0.000570124
0.000570891
0.000571651
0.000572405
0.000573151
0.000573891
0.000574625
0.000575353
0.000576074
0.000576789
0.000577498
0.000578202
0.000578899
0.000579591
0.000580278
0.000580959
0.000581634
0.000582305
0.00058297
0.00058363
0.000584285
0.000584935
0.00058558
0.00058622
0.000586856
0.000587487
0.000588113
0.000588735
0.000589353
0.000589966
0.000590575
0.000591179
0.00059178
0.000592376
0.000592968
0.000593557
0.000594141
0.000594721
0.000595298
0.000595871
0.00059644
0.000597005
0.000597567
0.000598125
0.00059868
0.000599231
0.000599779
0.000600324
0.000600865
0.000601403
0.000601937
0.000602468
0.000602997
0.000603522
0.000604043
0.000604562
0.000605078
0.000605591
0.000606101
0.000606608
0.000607112
0.000607613
0.000608112
0.000608607
0.0006091
0.00060959
0.000610078
0.000610562
0.000611045
0.000611524
0.000612001
0.000612476
0.000612948
0.000613417
0.000613884
0.000614349
0.000614811
0.000615271
0.000615728
0.000616183
0.000616636
0.000617086
0.000617534
0.00061798
0.000618424
0.000618865
0.000619305
0.000619742
0.000620177
0.00062061
0.00062104
0.000621469
0.000621896
0.00062232
0.000622743
0.000623163
0.000623582
0.000623998
0.000624413
0.000624825
0.000625236
0.000625645
0.000626052
0.000626457
0.00062686
0.000627261
0.000627661
0.000628058
0.000628454
0.000628848
0.000629241
0.000629631
0.00063002
0.000630407
0.000630792
0.000631176
0.000631558
0.000631938
0.000632317
0.000632693
0.000633069
0.000633442
0.000633814
0.000634184
0.000634553
0.00063492
0.000635286
0.00063565
0.000636012
0.000636373
0.000636732
0.00063709
0.000637446
0.000637801