/*--------------------------------*- C++ -*----------------------------------*\
| =========                 |                                                 |
| \\      /  F ield         | OpenFOAM: The Open Source CFD Toolbox           |
|  \\    /   O peration     | Version:  2406                                  |
|   \\  /    A nd           | Website:  www.openfoam.com                      |
|    \\/     M anipulation  |                                                 |
\*---------------------------------------------------------------------------*/
FoamFile
{
    version     2.0;
    format      ascii;
    arch        "LSB;label=32;scalar=64";
    class       volVectorField;
    location    "16.495";
    object      U;
}
// * * * * * * * * * * * * * * * * * * * * * * * * * * * * * * * * * * * * * //

dimensions      [0 1 -1 0 0 0 0];

internalField   nonuniform List<vector> 
1000
(
(0.237063 -8.54304e-18 0)
(0.710088 -1.12975e-17 0)
(1.1796 -1.34869e-17 0)
(1.6324 -1.22554e-17 0)
(2.04098 -1.21254e-17 0)
(2.38429 -1.22189e-17 0)
(2.66319 -1.23204e-17 0)
(2.89014 -1.22104e-17 0)
(3.07788 -1.2012e-17 0)
(3.23624 -1.18668e-17 0)
(3.37227 -1.19303e-17 0)
(3.49097 -1.21232e-17 0)
(3.59594 -1.23805e-17 0)
(3.68985 -1.26802e-17 0)
(3.77467 -1.28557e-17 0)
(3.85191 -1.29938e-17 0)
(3.92277 -1.30043e-17 0)
(3.98816 -1.29053e-17 0)
(4.04885 -1.28003e-17 0)
(4.10543 -1.27051e-17 0)
(4.15842 -1.26184e-17 0)
(4.20822 -1.25391e-17 0)
(4.25519 -1.2466e-17 0)
(4.29963 -1.23981e-17 0)
(4.34178 -1.23346e-17 0)
(4.38186 -1.22747e-17 0)
(4.42007 -1.22179e-17 0)
(4.45657 -1.21636e-17 0)
(4.49149 -1.21114e-17 0)
(4.52498 -1.2061e-17 0)
(4.55714 -1.20122e-17 0)
(4.58807 -1.19648e-17 0)
(4.61786 -1.19187e-17 0)
(4.64658 -1.18737e-17 0)
(4.67433 -1.18298e-17 0)
(4.70114 -1.17868e-17 0)
(4.7271 -1.17447e-17 0)
(4.75224 -1.17036e-17 0)
(4.77662 -1.16633e-17 0)
(4.80029 -1.16239e-17 0)
(4.82328 -1.15853e-17 0)
(4.84563 -1.15476e-17 0)
(4.86737 -1.15106e-17 0)
(4.88854 -1.14745e-17 0)
(4.90917 -1.14391e-17 0)
(4.92928 -1.14045e-17 0)
(4.9489 -1.13707e-17 0)
(4.96805 -1.13376e-17 0)
(4.98676 -1.13053e-17 0)
(5.00504 -1.12737e-17 0)
(5.02291 -1.12428e-17 0)
(5.0404 -1.12126e-17 0)
(5.05751 -1.11831e-17 0)
(5.07427 -1.11542e-17 0)
(5.09068 -1.11259e-17 0)
(5.10677 -1.10982e-17 0)
(5.12254 -1.10711e-17 0)
(5.13801 -1.10445e-17 0)
(5.15319 -1.10185e-17 0)
(5.16809 -1.09929e-17 0)
(5.18271 -1.09679e-17 0)
(5.19708 -1.09433e-17 0)
(5.21119 -1.09191e-17 0)
(5.22506 -1.08953e-17 0)
(5.2387 -1.08718e-17 0)
(5.25211 -1.08488e-17 0)
(5.26531 -1.0826e-17 0)
(5.27829 -1.08036e-17 0)
(5.29107 -1.07814e-17 0)
(5.30364 -1.07595e-17 0)
(5.31603 -1.07379e-17 0)
(5.32823 -1.07164e-17 0)
(5.34025 -1.06952e-17 0)
(5.35209 -1.06742e-17 0)
(5.36377 -1.06533e-17 0)
(5.37528 -1.06326e-17 0)
(5.38663 -1.06121e-17 0)
(5.39782 -1.05917e-17 0)
(5.40886 -1.05715e-17 0)
(5.41976 -1.05514e-17 0)
(5.43051 -1.05314e-17 0)
(5.44112 -1.05117e-17 0)
(5.4516 -1.04921e-17 0)
(5.46194 -1.04726e-17 0)
(5.47215 -1.04534e-17 0)
(5.48224 -1.04345e-17 0)
(5.49221 -1.04158e-17 0)
(5.50206 -1.03974e-17 0)
(5.51179 -1.03794e-17 0)
(5.52141 -1.03618e-17 0)
(5.53091 -1.03446e-17 0)
(5.54031 -1.03281e-17 0)
(5.5496 -1.03122e-17 0)
(5.55879 -1.02971e-17 0)
(5.56788 -1.02828e-17 0)
(5.57687 -1.02695e-17 0)
(5.58577 -1.02574e-17 0)
(5.59457 -1.02465e-17 0)
(5.60327 -1.0237e-17 0)
(5.61189 -1.02291e-17 0)
(5.62042 -1.02229e-17 0)
(5.62886 -1.02187e-17 0)
(5.63722 -1.02165e-17 0)
(5.64549 -1.02165e-17 0)
(5.65369 -1.0219e-17 0)
(5.6618 -1.02239e-17 0)
(5.66984 -1.02313e-17 0)
(5.6778 -1.02414e-17 0)
(5.68569 -1.02544e-17 0)
(5.6935 -1.0269e-17 0)
(5.70124 -1.02853e-17 0)
(5.70891 -1.03033e-17 0)
(5.71651 -1.03246e-17 0)
(5.72405 -1.03475e-17 0)
(5.73151 -1.03727e-17 0)
(5.73891 -1.04002e-17 0)
(5.74625 -1.04296e-17 0)
(5.75353 -1.04606e-17 0)
(5.76074 -1.04928e-17 0)
(5.76789 -1.05258e-17 0)
(5.77498 -1.05589e-17 0)
(5.78202 -1.05911e-17 0)
(5.78899 -1.06224e-17 0)
(5.79591 -1.06514e-17 0)
(5.80278 -1.0677e-17 0)
(5.80959 -1.06981e-17 0)
(5.81634 -1.07129e-17 0)
(5.82305 -1.07202e-17 0)
(5.8297 -1.07183e-17 0)
(5.8363 -1.07052e-17 0)
(5.84285 -1.06788e-17 0)
(5.84935 -1.06365e-17 0)
(5.8558 -1.05756e-17 0)
(5.8622 -1.04929e-17 0)
(5.86856 -1.0385e-17 0)
(5.87487 -1.02477e-17 0)
(5.88113 -1.00758e-17 0)
(5.88735 -9.86164e-18 0)
(5.89353 -9.6007e-18 0)
(5.89966 -9.24997e-18 0)
(5.90575 -9.00204e-18 0)
(5.91179 -8.75281e-18 0)
(5.9178 -8.40289e-18 0)
(5.92376 -8.14217e-18 0)
(5.92968 -7.92677e-18 0)
(5.93557 -7.75228e-18 0)
(5.94141 -7.61185e-18 0)
(5.94721 -7.50011e-18 0)
(5.95298 -7.41394e-18 0)
(5.95871 -7.35086e-18 0)
(5.9644 -7.30829e-18 0)
(5.97005 -7.28482e-18 0)
(5.97567 -7.27886e-18 0)
(5.98125 -7.28989e-18 0)
(5.9868 -7.31719e-18 0)
(5.99231 -7.36043e-18 0)
(5.99779 -7.41967e-18 0)
(6.00324 -7.49467e-18 0)
(6.00865 -7.58613e-18 0)
(6.01403 -7.69439e-18 0)
(6.01937 -7.82063e-18 0)
(6.02468 -7.9656e-18 0)
(6.02997 -8.13016e-18 0)
(6.03522 -8.31532e-18 0)
(6.04043 -8.52275e-18 0)
(6.04562 -8.7536e-18 0)
(6.05078 -9.00977e-18 0)
(6.05591 -9.29337e-18 0)
(6.06101 -9.60831e-18 0)
(6.06608 -9.95129e-18 0)
(6.07112 -1.0401e-17 0)
(6.07613 -1.06821e-17 0)
(6.08112 -1.09601e-17 0)
(6.08607 -1.13982e-17 0)
(6.091 -1.17234e-17 0)
(6.0959 -1.20156e-17 0)
(6.10078 -1.2272e-17 0)
(6.10562 -1.2497e-17 0)
(6.11045 -1.26933e-17 0)
(6.11524 -1.28628e-17 0)
(6.12001 -1.30082e-17 0)
(6.12476 -1.31317e-17 0)
(6.12948 -1.32356e-17 0)
(6.13417 -1.33217e-17 0)
(6.13884 -1.33927e-17 0)
(6.14349 -1.34514e-17 0)
(6.14811 -1.35003e-17 0)
(6.15271 -1.35426e-17 0)
(6.15728 -1.3581e-17 0)
(6.16183 -1.36193e-17 0)
(6.16636 -1.36608e-17 0)
(6.17086 -1.37093e-17 0)
(6.17534 -1.37682e-17 0)
(6.1798 -1.38415e-17 0)
(6.18424 -1.39332e-17 0)
(6.18865 -1.40472e-17 0)
(6.19305 -1.41866e-17 0)
(6.19742 -1.43549e-17 0)
(6.20177 -1.45545e-17 0)
(6.2061 -1.47864e-17 0)
(6.2104 -1.50502e-17 0)
(6.21469 -1.53371e-17 0)
(6.21896 -1.5768e-17 0)
(6.2232 -1.62353e-17 0)
(6.22743 -1.67025e-17 0)
(6.23163 -1.71313e-17 0)
(6.23582 -1.74165e-17 0)
(6.23998 -1.76785e-17 0)
(6.24413 -1.79082e-17 0)
(6.24825 -1.81051e-17 0)
(6.25236 -1.82697e-17 0)
(6.25645 -1.84041e-17 0)
(6.26052 -1.85102e-17 0)
(6.26457 -1.85912e-17 0)
(6.2686 -1.86499e-17 0)
(6.27261 -1.86891e-17 0)
(6.27661 -1.87117e-17 0)
(6.28058 -1.87197e-17 0)
(6.28454 -1.87158e-17 0)
(6.28848 -1.87019e-17 0)
(6.29241 -1.86798e-17 0)
(6.29631 -1.86507e-17 0)
(6.3002 -1.86162e-17 0)
(6.30407 -1.8577e-17 0)
(6.30792 -1.8534e-17 0)
(6.31176 -1.84881e-17 0)
(6.31558 -1.84399e-17 0)
(6.31938 -1.83897e-17 0)
(6.32317 -1.83379e-17 0)
(6.32693 -1.82848e-17 0)
(6.33069 -1.82305e-17 0)
(6.33442 -1.81752e-17 0)
(6.33814 -1.81189e-17 0)
(6.34184 -1.80619e-17 0)
(6.34553 -1.80037e-17 0)
(6.3492 -1.79444e-17 0)
(6.35286 -1.78839e-17 0)
(6.3565 -1.78229e-17 0)
(6.36012 -1.77613e-17 0)
(6.36373 -1.7699e-17 0)
(6.36732 -1.76362e-17 0)
(6.3709 -1.75723e-17 0)
(6.37446 -1.75079e-17 0)
(6.37801 -1.7443e-17 0)
(6.38154 -1.73777e-17 0)
(6.38506 -1.73115e-17 0)
(6.38856 -1.72446e-17 0)
(6.39205 -1.7177e-17 0)
(6.39552 -1.71087e-17 0)
(6.39898 -1.70397e-17 0)
(6.40242 -1.69702e-17 0)
(6.40585 -1.69002e-17 0)
(6.40927 -1.68296e-17 0)
(6.41267 -1.67587e-17 0)
(6.41605 -1.66874e-17 0)
(6.41942 -1.66159e-17 0)
(6.42278 -1.65441e-17 0)
(6.42612 -1.64721e-17 0)
(6.42945 -1.64e-17 0)
(6.43277 -1.63279e-17 0)
(6.43607 -1.62558e-17 0)
(6.43936 -1.61838e-17 0)
(6.44263 -1.61118e-17 0)
(6.44589 -1.604e-17 0)
(6.44914 -1.59683e-17 0)
(6.45237 -1.58969e-17 0)
(6.45559 -1.58258e-17 0)
(6.4588 -1.57549e-17 0)
(6.46199 -1.56843e-17 0)
(6.46517 -1.56141e-17 0)
(6.46834 -1.55442e-17 0)
(6.47149 -1.54747e-17 0)
(6.47463 -1.54056e-17 0)
(6.47776 -1.53369e-17 0)
(6.48088 -1.52687e-17 0)
(6.48398 -1.52008e-17 0)
(6.48707 -1.51334e-17 0)
(6.49014 -1.50664e-17 0)
(6.4932 -1.49999e-17 0)
(6.49625 -1.49339e-17 0)
(6.49929 -1.48683e-17 0)
(6.50232 -1.48032e-17 0)
(6.50533 -1.47385e-17 0)
(6.50833 -1.46743e-17 0)
(6.51132 -1.46105e-17 0)
(6.51429 -1.45472e-17 0)
(6.51725 -1.44844e-17 0)
(6.5202 -1.4422e-17 0)
(6.52314 -1.43601e-17 0)
(6.52606 -1.42986e-17 0)
(6.52898 -1.42375e-17 0)
(6.53188 -1.41769e-17 0)
(6.53477 -1.41168e-17 0)
(6.53764 -1.4057e-17 0)
(6.54051 -1.39977e-17 0)
(6.54336 -1.39387e-17 0)
(6.5462 -1.38802e-17 0)
(6.54902 -1.38221e-17 0)
(6.55184 -1.37644e-17 0)
(6.55464 -1.37071e-17 0)
(6.55743 -1.36501e-17 0)
(6.56021 -1.35935e-17 0)
(6.56298 -1.35373e-17 0)
(6.56574 -1.34815e-17 0)
(6.56848 -1.3426e-17 0)
(6.57121 -1.33709e-17 0)
(6.57393 -1.33161e-17 0)
(6.57664 -1.32617e-17 0)
(6.57934 -1.32076e-17 0)
(6.58202 -1.31538e-17 0)
(6.58469 -1.31003e-17 0)
(6.58735 -1.30472e-17 0)
(6.59 -1.29943e-17 0)
(6.59264 -1.29418e-17 0)
(6.59527 -1.28895e-17 0)
(6.59788 -1.28376e-17 0)
(6.60048 -1.27859e-17 0)
(6.60308 -1.27346e-17 0)
(6.60566 -1.26835e-17 0)
(6.60822 -1.26326e-17 0)
(6.61078 -1.25821e-17 0)
(6.61332 -1.25318e-17 0)
(6.61586 -1.24817e-17 0)
(6.61838 -1.24319e-17 0)
(6.62089 -1.23824e-17 0)
(6.62339 -1.23331e-17 0)
(6.62587 -1.2284e-17 0)
(6.62835 -1.22352e-17 0)
(6.63081 -1.21866e-17 0)
(6.63327 -1.21382e-17 0)
(6.63571 -1.209e-17 0)
(6.63814 -1.20421e-17 0)
(6.64055 -1.19944e-17 0)
(6.64296 -1.19469e-17 0)
(6.64536 -1.18996e-17 0)
(6.64774 -1.18525e-17 0)
(6.65011 -1.18056e-17 0)
(6.65247 -1.17589e-17 0)
(6.65482 -1.17124e-17 0)
(6.65716 -1.16661e-17 0)
(6.65949 -1.16199e-17 0)
(6.6618 -1.1574e-17 0)
(6.6641 -1.15282e-17 0)
(6.6664 -1.14826e-17 0)
(6.66868 -1.14372e-17 0)
(6.67095 -1.1392e-17 0)
(6.6732 -1.13469e-17 0)
(6.67545 -1.1302e-17 0)
(6.67768 -1.12572e-17 0)
(6.67991 -1.12126e-17 0)
(6.68212 -1.11682e-17 0)
(6.68432 -1.11239e-17 0)
(6.68651 -1.10798e-17 0)
(6.68868 -1.10358e-17 0)
(6.69085 -1.0992e-17 0)
(6.693 -1.09483e-17 0)
(6.69514 -1.09047e-17 0)
(6.69727 -1.08613e-17 0)
(6.69939 -1.0818e-17 0)
(6.7015 -1.07749e-17 0)
(6.70359 -1.07319e-17 0)
(6.70568 -1.0689e-17 0)
(6.70775 -1.06462e-17 0)
(6.70981 -1.06036e-17 0)
(6.71186 -1.05611e-17 0)
(6.7139 -1.05187e-17 0)
(6.71592 -1.04764e-17 0)
(6.71794 -1.04342e-17 0)
(6.71994 -1.03921e-17 0)
(6.72193 -1.03502e-17 0)
(6.72391 -1.03083e-17 0)
(6.72587 -1.02666e-17 0)
(6.72783 -1.0225e-17 0)
(6.72977 -1.01834e-17 0)
(6.7317 -1.0142e-17 0)
(6.73362 -1.01007e-17 0)
(6.73553 -1.00594e-17 0)
(6.73742 -1.00183e-17 0)
(6.73931 -9.9772e-18 0)
(6.74118 -9.93623e-18 0)
(6.74304 -9.89534e-18 0)
(6.74488 -9.85454e-18 0)
(6.74672 -9.81382e-18 0)
(6.74854 -9.77318e-18 0)
(6.75035 -9.73262e-18 0)
(6.75215 -9.69214e-18 0)
(6.75393 -9.65173e-18 0)
(6.75571 -9.6114e-18 0)
(6.75747 -9.57113e-18 0)
(6.75922 -9.53094e-18 0)
(6.76095 -9.49082e-18 0)
(6.76268 -9.45076e-18 0)
(6.76439 -9.41076e-18 0)
(6.76609 -9.37083e-18 0)
(6.76777 -9.33096e-18 0)
(6.76945 -9.29116e-18 0)
(6.77111 -9.25141e-18 0)
(6.77276 -9.21171e-18 0)
(6.77439 -9.17207e-18 0)
(6.77602 -9.13249e-18 0)
(6.77763 -9.09296e-18 0)
(6.77922 -9.05348e-18 0)
(6.78081 -9.01405e-18 0)
(6.78238 -8.97467e-18 0)
(6.78394 -8.93533e-18 0)
(6.78548 -8.89604e-18 0)
(6.78701 -8.8568e-18 0)
(6.78853 -8.8176e-18 0)
(6.79004 -8.77844e-18 0)
(6.79153 -8.73932e-18 0)
(6.79301 -8.70024e-18 0)
(6.79447 -8.6612e-18 0)
(6.79593 -8.6222e-18 0)
(6.79737 -8.58324e-18 0)
(6.79879 -8.54431e-18 0)
(6.8002 -8.50542e-18 0)
(6.8016 -8.46656e-18 0)
(6.80298 -8.42773e-18 0)
(6.80435 -8.38894e-18 0)
(6.80571 -8.35018e-18 0)
(6.80705 -8.31145e-18 0)
(6.80838 -8.27275e-18 0)
(6.80969 -8.23408e-18 0)
(6.81099 -8.19544e-18 0)
(6.81228 -8.15682e-18 0)
(6.81355 -8.11824e-18 0)
(6.81481 -8.07968e-18 0)
(6.81605 -8.04115e-18 0)
(6.81728 -8.00265e-18 0)
(6.81849 -7.96417e-18 0)
(6.81969 -7.92572e-18 0)
(6.82088 -7.88729e-18 0)
(6.82205 -7.84889e-18 0)
(6.8232 -7.81051e-18 0)
(6.82434 -7.77216e-18 0)
(6.82547 -7.73384e-18 0)
(6.82658 -7.69553e-18 0)
(6.82767 -7.65726e-18 0)
(6.82875 -7.619e-18 0)
(6.82982 -7.58078e-18 0)
(6.83087 -7.54257e-18 0)
(6.8319 -7.5044e-18 0)
(6.83292 -7.46624e-18 0)
(6.83392 -7.42812e-18 0)
(6.83491 -7.39002e-18 0)
(6.83588 -7.35194e-18 0)
(6.83683 -7.31389e-18 0)
(6.83777 -7.27587e-18 0)
(6.8387 -7.23788e-18 0)
(6.8396 -7.19991e-18 0)
(6.84049 -7.16198e-18 0)
(6.84137 -7.12407e-18 0)
(6.84223 -7.08619e-18 0)
(6.84307 -7.04834e-18 0)
(6.8439 -7.01053e-18 0)
(6.84471 -6.97274e-18 0)
(6.8455 -6.93499e-18 0)
(6.84627 -6.89727e-18 0)
(6.84703 -6.85959e-18 0)
(6.84778 -6.82194e-18 0)
(6.8485 -6.78433e-18 0)
(6.84921 -6.74676e-18 0)
(6.8499 -6.70923e-18 0)
(6.85058 -6.67174e-18 0)
(6.85123 -6.63428e-18 0)
(6.85187 -6.59687e-18 0)
(6.85249 -6.55951e-18 0)
(6.8531 -6.52219e-18 0)
(6.85369 -6.48491e-18 0)
(6.85426 -6.44769e-18 0)
(6.85481 -6.41051e-18 0)
(6.85534 -6.37338e-18 0)
(6.85586 -6.33631e-18 0)
(6.85636 -6.29928e-18 0)
(6.85684 -6.26232e-18 0)
(6.8573 -6.2254e-18 0)
(6.85775 -6.18855e-18 0)
(6.85817 -6.15175e-18 0)
(6.85858 -6.11501e-18 0)
(6.85897 -6.07834e-18 0)
(6.85935 -6.04172e-18 0)
(6.8597 -6.00517e-18 0)
(6.86003 -5.96864e-18 0)
(6.86035 -5.93217e-18 0)
(6.86065 -5.89577e-18 0)
(6.86093 -5.8594e-18 0)
(6.86119 -5.82307e-18 0)
(6.86144 -5.78678e-18 0)
(6.86166 -5.75052e-18 0)
(6.86187 -5.71434e-18 0)
(6.86205 -5.67821e-18 0)
(6.86222 -5.64213e-18 0)
(6.86237 -5.60613e-18 0)
(6.8625 -5.57019e-18 0)
(6.86262 -5.53432e-18 0)
(6.86271 -5.49852e-18 0)
(6.86279 -5.46278e-18 0)
(6.86284 -5.42712e-18 0)
(6.86288 -5.39153e-18 0)
(6.8629 -5.35602e-18 0)
(6.8629 -5.32059e-18 0)
(6.86288 -5.28523e-18 0)
(6.86284 -5.24995e-18 0)
(6.86279 -5.21476e-18 0)
(6.86271 -5.17964e-18 0)
(6.86262 -5.14461e-18 0)
(6.8625 -5.10967e-18 0)
(6.86237 -5.07482e-18 0)
(6.86222 -5.04008e-18 0)
(6.86205 -5.00544e-18 0)
(6.86187 -4.97089e-18 0)
(6.86166 -4.93644e-18 0)
(6.86144 -4.90206e-18 0)
(6.86119 -4.86778e-18 0)
(6.86093 -4.83358e-18 0)
(6.86065 -4.79947e-18 0)
(6.86035 -4.76546e-18 0)
(6.86003 -4.73154e-18 0)
(6.8597 -4.69772e-18 0)
(6.85935 -4.66399e-18 0)
(6.85897 -4.6304e-18 0)
(6.85858 -4.59696e-18 0)
(6.85817 -4.56365e-18 0)
(6.85775 -4.53049e-18 0)
(6.8573 -4.49747e-18 0)
(6.85684 -4.4646e-18 0)
(6.85636 -4.43187e-18 0)
(6.85586 -4.3993e-18 0)
(6.85534 -4.36687e-18 0)
(6.85481 -4.33459e-18 0)
(6.85426 -4.30247e-18 0)
(6.85369 -4.2705e-18 0)
(6.8531 -4.23868e-18 0)
(6.85249 -4.20702e-18 0)
(6.85187 -4.17551e-18 0)
(6.85123 -4.14416e-18 0)
(6.85058 -4.11296e-18 0)
(6.8499 -4.08193e-18 0)
(6.84921 -4.05105e-18 0)
(6.8485 -4.02034e-18 0)
(6.84778 -3.98978e-18 0)
(6.84703 -3.95938e-18 0)
(6.84627 -3.92915e-18 0)
(6.8455 -3.89908e-18 0)
(6.84471 -3.86917e-18 0)
(6.8439 -3.83943e-18 0)
(6.84307 -3.80985e-18 0)
(6.84223 -3.78043e-18 0)
(6.84137 -3.75118e-18 0)
(6.8405 -3.72209e-18 0)
(6.8396 -3.69317e-18 0)
(6.8387 -3.66441e-18 0)
(6.83777 -3.63582e-18 0)
(6.83683 -3.6074e-18 0)
(6.83588 -3.57914e-18 0)
(6.83491 -3.55105e-18 0)
(6.83392 -3.52312e-18 0)
(6.83292 -3.49536e-18 0)
(6.8319 -3.46777e-18 0)
(6.83087 -3.44034e-18 0)
(6.82982 -3.41308e-18 0)
(6.82875 -3.38599e-18 0)
(6.82767 -3.35906e-18 0)
(6.82658 -3.3323e-18 0)
(6.82547 -3.30571e-18 0)
(6.82434 -3.27928e-18 0)
(6.8232 -3.25301e-18 0)
(6.82205 -3.22691e-18 0)
(6.82088 -3.20098e-18 0)
(6.81969 -3.17521e-18 0)
(6.81849 -3.14961e-18 0)
(6.81728 -3.12417e-18 0)
(6.81605 -3.0989e-18 0)
(6.81481 -3.07379e-18 0)
(6.81355 -3.04884e-18 0)
(6.81228 -3.02405e-18 0)
(6.81099 -2.99943e-18 0)
(6.80969 -2.97497e-18 0)
(6.80838 -2.95067e-18 0)
(6.80705 -2.92654e-18 0)
(6.80571 -2.90256e-18 0)
(6.80435 -2.87875e-18 0)
(6.80298 -2.85509e-18 0)
(6.8016 -2.8316e-18 0)
(6.8002 -2.80826e-18 0)
(6.79879 -2.78508e-18 0)
(6.79737 -2.76206e-18 0)
(6.79593 -2.7392e-18 0)
(6.79448 -2.71649e-18 0)
(6.79301 -2.69394e-18 0)
(6.79153 -2.67155e-18 0)
(6.79004 -2.64931e-18 0)
(6.78853 -2.62722e-18 0)
(6.78701 -2.60529e-18 0)
(6.78548 -2.58351e-18 0)
(6.78394 -2.56189e-18 0)
(6.78238 -2.54041e-18 0)
(6.78081 -2.51909e-18 0)
(6.77922 -2.49792e-18 0)
(6.77763 -2.4769e-18 0)
(6.77602 -2.45603e-18 0)
(6.77439 -2.4353e-18 0)
(6.77276 -2.41473e-18 0)
(6.77111 -2.3943e-18 0)
(6.76945 -2.37401e-18 0)
(6.76778 -2.35388e-18 0)
(6.76609 -2.33389e-18 0)
(6.76439 -2.31404e-18 0)
(6.76268 -2.29434e-18 0)
(6.76096 -2.27478e-18 0)
(6.75922 -2.25536e-18 0)
(6.75747 -2.23608e-18 0)
(6.75571 -2.21695e-18 0)
(6.75394 -2.19795e-18 0)
(6.75215 -2.1791e-18 0)
(6.75035 -2.16038e-18 0)
(6.74854 -2.1418e-18 0)
(6.74672 -2.12336e-18 0)
(6.74488 -2.10506e-18 0)
(6.74304 -2.08689e-18 0)
(6.74118 -2.06886e-18 0)
(6.73931 -2.05096e-18 0)
(6.73742 -2.03319e-18 0)
(6.73553 -2.01556e-18 0)
(6.73362 -1.99806e-18 0)
(6.7317 -1.98069e-18 0)
(6.72977 -1.96345e-18 0)
(6.72783 -1.94635e-18 0)
(6.72588 -1.92937e-18 0)
(6.72391 -1.91252e-18 0)
(6.72193 -1.8958e-18 0)
(6.71994 -1.8792e-18 0)
(6.71794 -1.86273e-18 0)
(6.71592 -1.84639e-18 0)
(6.7139 -1.83018e-18 0)
(6.71186 -1.81408e-18 0)
(6.70981 -1.79811e-18 0)
(6.70775 -1.78227e-18 0)
(6.70568 -1.76654e-18 0)
(6.7036 -1.75094e-18 0)
(6.7015 -1.73546e-18 0)
(6.69939 -1.72009e-18 0)
(6.69727 -1.70485e-18 0)
(6.69514 -1.68972e-18 0)
(6.693 -1.67472e-18 0)
(6.69085 -1.65983e-18 0)
(6.68868 -1.64505e-18 0)
(6.68651 -1.6304e-18 0)
(6.68432 -1.61585e-18 0)
(6.68212 -1.60142e-18 0)
(6.67991 -1.58711e-18 0)
(6.67768 -1.57291e-18 0)
(6.67545 -1.55882e-18 0)
(6.6732 -1.54484e-18 0)
(6.67095 -1.53097e-18 0)
(6.66868 -1.51721e-18 0)
(6.6664 -1.50356e-18 0)
(6.6641 -1.49002e-18 0)
(6.6618 -1.47659e-18 0)
(6.65949 -1.46327e-18 0)
(6.65716 -1.45005e-18 0)
(6.65482 -1.43694e-18 0)
(6.65247 -1.42393e-18 0)
(6.65011 -1.41103e-18 0)
(6.64774 -1.39823e-18 0)
(6.64536 -1.38554e-18 0)
(6.64296 -1.37294e-18 0)
(6.64056 -1.36045e-18 0)
(6.63814 -1.34807e-18 0)
(6.63571 -1.33578e-18 0)
(6.63327 -1.32359e-18 0)
(6.63081 -1.3115e-18 0)
(6.62835 -1.29951e-18 0)
(6.62587 -1.28762e-18 0)
(6.62339 -1.27583e-18 0)
(6.62089 -1.26413e-18 0)
(6.61838 -1.25253e-18 0)
(6.61586 -1.24102e-18 0)
(6.61332 -1.22961e-18 0)
(6.61078 -1.21829e-18 0)
(6.60822 -1.20707e-18 0)
(6.60566 -1.19594e-18 0)
(6.60308 -1.1849e-18 0)
(6.60048 -1.17396e-18 0)
(6.59788 -1.1631e-18 0)
(6.59527 -1.15234e-18 0)
(6.59264 -1.14166e-18 0)
(6.59 -1.13108e-18 0)
(6.58735 -1.12058e-18 0)
(6.58469 -1.11017e-18 0)
(6.58202 -1.09985e-18 0)
(6.57934 -1.08962e-18 0)
(6.57664 -1.07947e-18 0)
(6.57393 -1.06941e-18 0)
(6.57121 -1.05943e-18 0)
(6.56848 -1.04954e-18 0)
(6.56574 -1.03973e-18 0)
(6.56298 -1.03001e-18 0)
(6.56021 -1.02036e-18 0)
(6.55743 -1.0108e-18 0)
(6.55464 -1.00133e-18 0)
(6.55184 -9.91928e-19 0)
(6.54902 -9.82611e-19 0)
(6.5462 -9.73375e-19 0)
(6.54336 -9.64218e-19 0)
(6.54051 -9.55139e-19 0)
(6.53764 -9.46139e-19 0)
(6.53477 -9.37217e-19 0)
(6.53188 -9.28372e-19 0)
(6.52898 -9.19603e-19 0)
(6.52606 -9.10911e-19 0)
(6.52314 -9.02294e-19 0)
(6.5202 -8.93752e-19 0)
(6.51725 -8.85285e-19 0)
(6.51429 -8.76892e-19 0)
(6.51132 -8.68572e-19 0)
(6.50833 -8.60325e-19 0)
(6.50533 -8.5215e-19 0)
(6.50232 -8.44047e-19 0)
(6.49929 -8.36016e-19 0)
(6.49626 -8.28055e-19 0)
(6.49321 -8.20165e-19 0)
(6.49014 -8.12344e-19 0)
(6.48707 -8.04593e-19 0)
(6.48398 -7.9691e-19 0)
(6.48088 -7.89296e-19 0)
(6.47776 -7.8175e-19 0)
(6.47463 -7.74271e-19 0)
(6.47149 -7.66858e-19 0)
(6.46834 -7.59512e-19 0)
(6.46517 -7.52232e-19 0)
(6.46199 -7.45017e-19 0)
(6.4588 -7.37867e-19 0)
(6.45559 -7.30781e-19 0)
(6.45237 -7.23759e-19 0)
(6.44914 -7.16801e-19 0)
(6.44589 -7.09905e-19 0)
(6.44263 -7.03072e-19 0)
(6.43936 -6.96301e-19 0)
(6.43607 -6.89591e-19 0)
(6.43277 -6.82942e-19 0)
(6.42945 -6.76354e-19 0)
(6.42612 -6.69827e-19 0)
(6.42278 -6.63358e-19 0)
(6.41942 -6.56949e-19 0)
(6.41605 -6.50599e-19 0)
(6.41267 -6.44307e-19 0)
(6.40927 -6.38074e-19 0)
(6.40585 -6.31897e-19 0)
(6.40242 -6.25778e-19 0)
(6.39898 -6.19715e-19 0)
(6.39552 -6.13708e-19 0)
(6.39205 -6.07757e-19 0)
(6.38856 -6.01861e-19 0)
(6.38506 -5.9602e-19 0)
(6.38154 -5.90233e-19 0)
(6.37801 -5.84501e-19 0)
(6.37446 -5.78822e-19 0)
(6.3709 -5.73196e-19 0)
(6.36732 -5.67623e-19 0)
(6.36373 -5.62102e-19 0)
(6.36012 -5.56634e-19 0)
(6.3565 -5.51216e-19 0)
(6.35286 -5.4585e-19 0)
(6.3492 -5.40535e-19 0)
(6.34553 -5.35269e-19 0)
(6.34184 -5.30054e-19 0)
(6.33814 -5.24889e-19 0)
(6.33442 -5.19772e-19 0)
(6.33069 -5.14704e-19 0)
(6.32693 -5.09685e-19 0)
(6.32316 -5.04713e-19 0)
(6.31938 -4.99789e-19 0)
(6.31558 -4.94912e-19 0)
(6.31176 -4.90082e-19 0)
(6.30792 -4.85299e-19 0)
(6.30407 -4.80562e-19 0)
(6.3002 -4.7587e-19 0)
(6.29631 -4.71223e-19 0)
(6.29241 -4.66622e-19 0)
(6.28848 -4.62065e-19 0)
(6.28454 -4.57553e-19 0)
(6.28058 -4.53084e-19 0)
(6.27661 -4.48659e-19 0)
(6.27261 -4.44277e-19 0)
(6.2686 -4.39938e-19 0)
(6.26457 -4.35641e-19 0)
(6.26052 -4.31386e-19 0)
(6.25645 -4.27173e-19 0)
(6.25236 -4.23002e-19 0)
(6.24825 -4.18872e-19 0)
(6.24413 -4.14782e-19 0)
(6.23998 -4.10733e-19 0)
(6.23582 -4.06724e-19 0)
(6.23163 -4.02754e-19 0)
(6.22743 -3.98824e-19 0)
(6.2232 -3.94933e-19 0)
(6.21896 -3.91081e-19 0)
(6.21469 -3.87267e-19 0)
(6.2104 -3.83492e-19 0)
(6.2061 -3.79754e-19 0)
(6.20177 -3.76054e-19 0)
(6.19742 -3.72391e-19 0)
(6.19305 -3.68764e-19 0)
(6.18865 -3.65174e-19 0)
(6.18424 -3.61621e-19 0)
(6.1798 -3.58103e-19 0)
(6.17534 -3.54621e-19 0)
(6.17086 -3.51174e-19 0)
(6.16636 -3.47763e-19 0)
(6.16183 -3.44385e-19 0)
(6.15728 -3.41043e-19 0)
(6.15271 -3.37734e-19 0)
(6.14811 -3.3446e-19 0)
(6.14349 -3.31218e-19 0)
(6.13884 -3.28011e-19 0)
(6.13417 -3.24836e-19 0)
(6.12948 -3.21693e-19 0)
(6.12476 -3.18583e-19 0)
(6.12001 -3.15506e-19 0)
(6.11524 -3.1246e-19 0)
(6.11045 -3.09445e-19 0)
(6.10562 -3.06462e-19 0)
(6.10078 -3.0351e-19 0)
(6.0959 -3.00589e-19 0)
(6.091 -2.97698e-19 0)
(6.08607 -2.94837e-19 0)
(6.08111 -2.92007e-19 0)
(6.07613 -2.89205e-19 0)
(6.07112 -2.86434e-19 0)
(6.06608 -2.83691e-19 0)
(6.06101 -2.80978e-19 0)
(6.05591 -2.78293e-19 0)
(6.05078 -2.75636e-19 0)
(6.04562 -2.73008e-19 0)
(6.04043 -2.70407e-19 0)
(6.03522 -2.67834e-19 0)
(6.02997 -2.65289e-19 0)
(6.02468 -2.6277e-19 0)
(6.01937 -2.60279e-19 0)
(6.01403 -2.57814e-19 0)
(6.00865 -2.55375e-19 0)
(6.00324 -2.52963e-19 0)
(5.99779 -2.50577e-19 0)
(5.99231 -2.48216e-19 0)
(5.9868 -2.45881e-19 0)
(5.98125 -2.43571e-19 0)
(5.97567 -2.41286e-19 0)
(5.97005 -2.39026e-19 0)
(5.9644 -2.36791e-19 0)
(5.95871 -2.3458e-19 0)
(5.95298 -2.32392e-19 0)
(5.94721 -2.30229e-19 0)
(5.94141 -2.2809e-19 0)
(5.93556 -2.25974e-19 0)
(5.92968 -2.23881e-19 0)
(5.92376 -2.21811e-19 0)
(5.9178 -2.19764e-19 0)
(5.91179 -2.17739e-19 0)
(5.90575 -2.15737e-19 0)
(5.89966 -2.13757e-19 0)
(5.89353 -2.11799e-19 0)
(5.88735 -2.09863e-19 0)
(5.88113 -2.07949e-19 0)
(5.87487 -2.06055e-19 0)
(5.86856 -2.04183e-19 0)
(5.8622 -2.02332e-19 0)
(5.8558 -2.00501e-19 0)
(5.84935 -1.98691e-19 0)
(5.84285 -1.96902e-19 0)
(5.8363 -1.95132e-19 0)
(5.8297 -1.93383e-19 0)
(5.82304 -1.91653e-19 0)
(5.81634 -1.89943e-19 0)
(5.80959 -1.88252e-19 0)
(5.80278 -1.86581e-19 0)
(5.79591 -1.84928e-19 0)
(5.78899 -1.83294e-19 0)
(5.78202 -1.81679e-19 0)
(5.77498 -1.80082e-19 0)
(5.76789 -1.78504e-19 0)
(5.76074 -1.76943e-19 0)
(5.75352 -1.75401e-19 0)
(5.74625 -1.73876e-19 0)
(5.73891 -1.72368e-19 0)
(5.73151 -1.70878e-19 0)
(5.72404 -1.69406e-19 0)
(5.71651 -1.6795e-19 0)
(5.70891 -1.66511e-19 0)
(5.70124 -1.65088e-19 0)
(5.6935 -1.63682e-19 0)
(5.68569 -1.62293e-19 0)
(5.6778 -1.60919e-19 0)
(5.66984 -1.59561e-19 0)
(5.6618 -1.58219e-19 0)
(5.65369 -1.56893e-19 0)
(5.64549 -1.55582e-19 0)
(5.63722 -1.54286e-19 0)
(5.62886 -1.53006e-19 0)
(5.62042 -1.5174e-19 0)
(5.61189 -1.50489e-19 0)
(5.60327 -1.49253e-19 0)
(5.59456 -1.48031e-19 0)
(5.58577 -1.46823e-19 0)
(5.57687 -1.45629e-19 0)
(5.56788 -1.44449e-19 0)
(5.55879 -1.43283e-19 0)
(5.5496 -1.4213e-19 0)
(5.54031 -1.40991e-19 0)
(5.53091 -1.39864e-19 0)
(5.52141 -1.38751e-19 0)
(5.51179 -1.37651e-19 0)
(5.50206 -1.36563e-19 0)
(5.49221 -1.35488e-19 0)
(5.48224 -1.34425e-19 0)
(5.47215 -1.33375e-19 0)
(5.46194 -1.32336e-19 0)
(5.45159 -1.31309e-19 0)
(5.44112 -1.30293e-19 0)
(5.43051 -1.2929e-19 0)
(5.41976 -1.28297e-19 0)
(5.40886 -1.27315e-19 0)
(5.39782 -1.26345e-19 0)
(5.38663 -1.25385e-19 0)
(5.37528 -1.24435e-19 0)
(5.36377 -1.23496e-19 0)
(5.35209 -1.22567e-19 0)
(5.34025 -1.21647e-19 0)
(5.32823 -1.20738e-19 0)
(5.31603 -1.19838e-19 0)
(5.30364 -1.18947e-19 0)
(5.29106 -1.18066e-19 0)
(5.27829 -1.17193e-19 0)
(5.26531 -1.16329e-19 0)
(5.25211 -1.15473e-19 0)
(5.2387 -1.14626e-19 0)
(5.22506 -1.13786e-19 0)
(5.21119 -1.12954e-19 0)
(5.19708 -1.1213e-19 0)
(5.18271 -1.11313e-19 0)
(5.16808 -1.10503e-19 0)
(5.15319 -1.09699e-19 0)
(5.13801 -1.08902e-19 0)
(5.12254 -1.0811e-19 0)
(5.10677 -1.07325e-19 0)
(5.09068 -1.06545e-19 0)
(5.07427 -1.0577e-19 0)
(5.05751 -1.05e-19 0)
(5.0404 -1.04234e-19 0)
(5.02291 -1.03472e-19 0)
(5.00504 -1.02714e-19 0)
(4.98676 -1.01959e-19 0)
(4.96805 -1.01207e-19 0)
(4.9489 -1.00457e-19 0)
(4.92928 -9.97087e-20 0)
(4.90917 -9.89617e-20 0)
(4.88854 -9.82154e-20 0)
(4.86737 -9.74691e-20 0)
(4.84563 -9.67224e-20 0)
(4.82328 -9.59743e-20 0)
(4.80029 -9.52243e-20 0)
(4.77662 -9.44716e-20 0)
(4.75224 -9.37152e-20 0)
(4.7271 -9.29543e-20 0)
(4.70114 -9.21879e-20 0)
(4.67433 -9.14148e-20 0)
(4.64658 -9.06339e-20 0)
(4.61786 -8.98439e-20 0)
(4.58807 -8.90434e-20 0)
(4.55714 -8.82306e-20 0)
(4.52498 -8.7404e-20 0)
(4.49149 -8.65614e-20 0)
(4.45657 -8.57008e-20 0)
(4.42007 -8.48196e-20 0)
(4.38186 -8.39151e-20 0)
(4.34178 -8.2984e-20 0)
(4.29962 -8.20227e-20 0)
(4.25519 -8.10271e-20 0)
(4.20822 -7.99923e-20 0)
(4.15842 -7.89126e-20 0)
(4.10543 -7.77814e-20 0)
(4.04885 -7.65908e-20 0)
(3.98816 -7.53312e-20 0)
(3.92276 -7.39912e-20 0)
(3.85191 -7.25567e-20 0)
(3.77466 -7.101e-20 0)
(3.68985 -6.9329e-20 0)
(3.59594 -6.74852e-20 0)
(3.49096 -6.54415e-20 0)
(3.37227 -6.31482e-20 0)
(3.23624 -6.0538e-20 0)
(3.07788 -5.75174e-20 0)
(2.89014 -5.39552e-20 0)
(2.66319 -4.96687e-20 0)
(2.38428 -4.44214e-20 0)
(2.04098 -3.79843e-20 0)
(1.6324 -3.0346e-20 0)
(1.1796 -2.19033e-20 0)
(0.710087 -1.317e-20 0)
(0.237063 -4.39076e-21 0)
)
;

boundaryField
{
    top_wall
    {
        type            noSlip;
    }
    inlet
    {
        type            cyclic;
    }
    bot_wall
    {
        type            noSlip;
    }
    outlet
    {
        type            cyclic;
    }
    frontAndBack
    {
        type            empty;
    }
}


// ************************************************************************* //
