/*--------------------------------*- C++ -*----------------------------------*\
| =========                 |                                                 |
| \\      /  F ield         | OpenFOAM: The Open Source CFD Toolbox           |
|  \\    /   O peration     | Version:  2406                                  |
|   \\  /    A nd           | Website:  www.openfoam.com                      |
|    \\/     M anipulation  |                                                 |
\*---------------------------------------------------------------------------*/
FoamFile
{
    version     2.0;
    format      ascii;
    arch        "LSB;label=32;scalar=64";
    class       volScalarField;
    location    "22.66";
    object      epsilon;
}
// * * * * * * * * * * * * * * * * * * * * * * * * * * * * * * * * * * * * * //

dimensions      [0 2 -3 0 0 0 0];

internalField   nonuniform List<scalar> 
1000
(
8.40357
4.49951
3.24517
2.66964
2.31716
2.06489
1.86965
1.71178
1.58049
1.46908
1.37311
1.28941
1.21568
1.15017
1.09153
1.03871
0.990859
0.947287
0.907433
0.870829
0.837086
0.805874
0.776913
0.749963
0.724819
0.701302
0.679257
0.658546
0.639052
0.620668
0.603301
0.586868
0.571293
0.556512
0.542464
0.529095
0.516357
0.504205
0.4926
0.481505
0.470886
0.460715
0.450962
0.441602
0.432612
0.42397
0.415656
0.407651
0.399939
0.392504
0.385331
0.378405
0.371716
0.36525
0.358996
0.352945
0.347086
0.34141
0.33591
0.330576
0.325402
0.320379
0.315503
0.310766
0.306162
0.301686
0.297333
0.293097
0.288974
0.28496
0.28105
0.27724
0.273526
0.269905
0.266373
0.262927
0.259564
0.256281
0.253075
0.249943
0.246884
0.243893
0.24097
0.238111
0.235315
0.232579
0.229902
0.227282
0.224716
0.222204
0.219744
0.217333
0.214971
0.212656
0.210386
0.20816
0.205978
0.203837
0.201737
0.199676
0.197653
0.195667
0.193717
0.191803
0.189923
0.188075
0.186261
0.184477
0.182725
0.181002
0.179308
0.177643
0.176005
0.174394
0.172809
0.17125
0.169716
0.168206
0.16672
0.165257
0.163817
0.162398
0.161002
0.159626
0.15827
0.156935
0.15562
0.154323
0.153045
0.151786
0.150544
0.14932
0.148113
0.146923
0.145749
0.144591
0.143448
0.142321
0.141209
0.140112
0.139029
0.13796
0.136905
0.135863
0.134834
0.133819
0.132816
0.131825
0.130847
0.12988
0.128925
0.127982
0.12705
0.126129
0.125218
0.124318
0.123429
0.12255
0.12168
0.120821
0.119971
0.11913
0.118299
0.117477
0.116664
0.115859
0.115063
0.114275
0.113496
0.112725
0.111962
0.111206
0.110459
0.109719
0.108986
0.10826
0.107542
0.106831
0.106127
0.105429
0.104738
0.104054
0.103376
0.102705
0.102039
0.10138
0.100727
0.10008
0.0994384
0.0988027
0.0981727
0.0975482
0.0969292
0.0963155
0.0957071
0.0951038
0.0945057
0.0939126
0.0933244
0.0927411
0.0921626
0.0915887
0.0910196
0.0904549
0.0898948
0.0893391
0.0887877
0.0882406
0.0876978
0.087159
0.0866244
0.0860938
0.0855672
0.0850445
0.0845256
0.0840105
0.0834992
0.0829915
0.0824874
0.081987
0.08149
0.0809965
0.0805064
0.0800197
0.0795363
0.0790562
0.0785793
0.0781055
0.0776349
0.0771674
0.0767029
0.0762415
0.075783
0.0753274
0.0748747
0.0744248
0.0739777
0.0735334
0.0730918
0.0726529
0.0722166
0.071783
0.0713519
0.0709234
0.0704974
0.0700739
0.0696528
0.0692341
0.0688178
0.0684039
0.0679923
0.067583
0.0671759
0.0667711
0.0663685
0.065968
0.0655697
0.0651736
0.0647795
0.0643875
0.0639976
0.0636097
0.0632238
0.0628398
0.0624579
0.0620778
0.0616997
0.0613234
0.060949
0.0605765
0.0602057
0.0598368
0.0594697
0.0591043
0.0587407
0.0583787
0.0580185
0.05766
0.0573032
0.056948
0.0565944
0.0562425
0.0558922
0.0555434
0.0551963
0.0548507
0.0545066
0.054164
0.053823
0.0534835
0.0531454
0.0528089
0.0524738
0.0521401
0.0518079
0.051477
0.0511476
0.0508196
0.050493
0.0501678
0.0498439
0.0495214
0.0492002
0.0488804
0.0485619
0.0482447
0.0479288
0.0476142
0.0473009
0.0469889
0.0466781
0.0463686
0.0460604
0.0457534
0.0454477
0.0451432
0.0448399
0.0445379
0.0442371
0.0439375
0.0436391
0.0433419
0.0430459
0.0427511
0.0424575
0.042165
0.0418738
0.0415837
0.0412948
0.0410071
0.0407205
0.0404351
0.0401508
0.0398677
0.0395858
0.039305
0.0390254
0.0387469
0.0384696
0.0381934
0.0379184
0.0376445
0.0373717
0.0371001
0.0368297
0.0365604
0.0362922
0.0360252
0.0357594
0.0354947
0.0352311
0.0349687
0.0347075
0.0344474
0.0341885
0.0339307
0.0336741
0.0334187
0.0331644
0.0329113
0.0326594
0.0324087
0.0321592
0.0319108
0.0316637
0.0314177
0.031173
0.0309295
0.0306871
0.030446
0.0302062
0.0299675
0.0297301
0.029494
0.029259
0.0290254
0.028793
0.0285619
0.0283321
0.0281035
0.0278763
0.0276503
0.0274257
0.0272024
0.0269804
0.0267597
0.0265404
0.0263225
0.0261059
0.0258906
0.0256768
0.0254644
0.0252533
0.0250437
0.0248355
0.0246287
0.0244233
0.0242194
0.024017
0.0238161
0.0236166
0.0234186
0.0232222
0.0230272
0.0228338
0.0226419
0.0224516
0.0222628
0.0220757
0.0218901
0.0217061
0.0215237
0.0213429
0.0211638
0.0209863
0.0208105
0.0206364
0.0204639
0.0202932
0.0201241
0.0199568
0.0197912
0.0196273
0.0194653
0.0193049
0.0191464
0.0189897
0.0188347
0.0186816
0.0185303
0.0183809
0.0182333
0.0180876
0.0179438
0.0178018
0.0176618
0.0175236
0.0173874
0.0172532
0.0171208
0.0169905
0.0168621
0.0167356
0.0166112
0.0164888
0.0163684
0.01625
0.0161336
0.0160193
0.015907
0.0157968
0.0156886
0.0155825
0.0154785
0.0153766
0.0152768
0.0151791
0.0150836
0.0149901
0.0148988
0.0148096
0.0147226
0.0146377
0.014555
0.0144745
0.0143961
0.0143199
0.0142459
0.014174
0.0141044
0.014037
0.0139718
0.0139087
0.0138479
0.0137893
0.013733
0.0136788
0.0136269
0.0135773
0.0135298
0.0134846
0.0134417
0.013401
0.0133625
0.0133263
0.0132923
0.0132606
0.0132312
0.013204
0.013179
0.0131564
0.013136
0.0131178
0.0131019
0.0130883
0.013077
0.0130679
0.0130611
0.0130566
0.0130543
0.0130543
0.0130566
0.0130611
0.0130679
0.013077
0.0130883
0.0131019
0.0131178
0.013136
0.0131564
0.013179
0.013204
0.0132312
0.0132606
0.0132923
0.0133263
0.0133625
0.013401
0.0134417
0.0134846
0.0135298
0.0135773
0.0136269
0.0136788
0.013733
0.0137894
0.0138479
0.0139087
0.0139718
0.014037
0.0141044
0.0141741
0.0142459
0.0143199
0.0143961
0.0144745
0.014555
0.0146377
0.0147226
0.0148096
0.0148988
0.0149901
0.0150836
0.0151792
0.0152768
0.0153766
0.0154785
0.0155825
0.0156886
0.0157968
0.015907
0.0160193
0.0161336
0.01625
0.0163684
0.0164888
0.0166112
0.0167356
0.0168621
0.0169905
0.0171208
0.0172532
0.0173874
0.0175236
0.0176618
0.0178018
0.0179438
0.0180876
0.0182333
0.0183809
0.0185303
0.0186816
0.0188347
0.0189897
0.0191464
0.0193049
0.0194653
0.0196273
0.0197912
0.0199568
0.0201241
0.0202932
0.0204639
0.0206364
0.0208105
0.0209863
0.0211638
0.0213429
0.0215237
0.0217061
0.0218901
0.0220757
0.0222628
0.0224516
0.0226419
0.0228338
0.0230272
0.0232222
0.0234186
0.0236166
0.0238161
0.024017
0.0242194
0.0244233
0.0246287
0.0248355
0.0250437
0.0252533
0.0254644
0.0256768
0.0258907
0.0261059
0.0263225
0.0265404
0.0267597
0.0269804
0.0272024
0.0274257
0.0276503
0.0278763
0.0281035
0.0283321
0.0285619
0.028793
0.0290254
0.0292591
0.029494
0.0297301
0.0299675
0.0302062
0.030446
0.0306871
0.0309295
0.031173
0.0314177
0.0316637
0.0319108
0.0321592
0.0324087
0.0326595
0.0329114
0.0331644
0.0334187
0.0336741
0.0339307
0.0341885
0.0344474
0.0347075
0.0349687
0.0352311
0.0354947
0.0357594
0.0360253
0.0362923
0.0365604
0.0368297
0.0371002
0.0373717
0.0376445
0.0379184
0.0381934
0.0384696
0.0387469
0.0390254
0.039305
0.0395858
0.0398677
0.0401508
0.0404351
0.0407205
0.0410071
0.0412948
0.0415837
0.0418738
0.042165
0.0424575
0.0427511
0.0430459
0.0433419
0.0436391
0.0439375
0.0442371
0.0445379
0.04484
0.0451432
0.0454477
0.0457534
0.0460604
0.0463686
0.0466781
0.0469889
0.0473009
0.0476142
0.0479288
0.0482447
0.0485619
0.0488804
0.0492002
0.0495214
0.0498439
0.0501678
0.050493
0.0508197
0.0511477
0.0514771
0.0518079
0.0521401
0.0524738
0.0528089
0.0531455
0.0534835
0.053823
0.0541641
0.0545066
0.0548507
0.0551963
0.0555435
0.0558922
0.0562425
0.0565945
0.056948
0.0573032
0.0576601
0.0580186
0.0583788
0.0587407
0.0591043
0.0594697
0.0598368
0.0602058
0.0605765
0.060949
0.0613234
0.0616997
0.0620778
0.0624579
0.0628399
0.0632238
0.0636097
0.0639976
0.0643876
0.0647795
0.0651736
0.0655698
0.0659681
0.0663685
0.0667711
0.0671759
0.067583
0.0679923
0.0684039
0.0688179
0.0692341
0.0696528
0.0700739
0.0704974
0.0709234
0.071352
0.071783
0.0722167
0.0726529
0.0730918
0.0735334
0.0739777
0.0744248
0.0748747
0.0753274
0.075783
0.0762415
0.076703
0.0771674
0.077635
0.0781056
0.0785793
0.0790562
0.0795363
0.0800197
0.0805064
0.0809965
0.08149
0.081987
0.0824875
0.0829915
0.0834992
0.0840105
0.0845256
0.0850445
0.0855672
0.0860939
0.0866245
0.0871591
0.0876978
0.0882407
0.0887877
0.0893391
0.0898948
0.090455
0.0910196
0.0915888
0.0921626
0.0927411
0.0933244
0.0939126
0.0945057
0.0951039
0.0957071
0.0963155
0.0969292
0.0975483
0.0981727
0.0988028
0.0994384
0.10008
0.100727
0.10138
0.102039
0.102705
0.103376
0.104054
0.104738
0.105429
0.106127
0.106831
0.107542
0.108261
0.108986
0.109719
0.110459
0.111206
0.111962
0.112725
0.113496
0.114275
0.115063
0.115859
0.116664
0.117477
0.118299
0.11913
0.119971
0.120821
0.12168
0.12255
0.123429
0.124318
0.125218
0.126129
0.12705
0.127982
0.128925
0.12988
0.130847
0.131825
0.132816
0.133819
0.134834
0.135863
0.136905
0.13796
0.139029
0.140112
0.141209
0.142321
0.143448
0.144591
0.145749
0.146923
0.148113
0.14932
0.150544
0.151786
0.153045
0.154323
0.15562
0.156935
0.15827
0.159626
0.161002
0.162398
0.163817
0.165257
0.16672
0.168206
0.169716
0.17125
0.172809
0.174394
0.176005
0.177643
0.179308
0.181002
0.182725
0.184477
0.186261
0.188075
0.189923
0.191803
0.193717
0.195667
0.197653
0.199676
0.201737
0.203837
0.205978
0.20816
0.210386
0.212656
0.214971
0.217333
0.219744
0.222204
0.224716
0.227282
0.229902
0.232579
0.235315
0.238111
0.24097
0.243893
0.246884
0.249943
0.253075
0.256281
0.259564
0.262927
0.266373
0.269905
0.273526
0.27724
0.28105
0.28496
0.288974
0.293097
0.297333
0.301686
0.306162
0.310766
0.315503
0.320379
0.325401
0.330576
0.33591
0.34141
0.347086
0.352945
0.358996
0.36525
0.371716
0.378405
0.38533
0.392504
0.399939
0.407651
0.415656
0.42397
0.432612
0.441602
0.450962
0.460715
0.470886
0.481504
0.492599
0.504205
0.516356
0.529095
0.542464
0.556512
0.571293
0.586867
0.603301
0.620668
0.639052
0.658546
0.679256
0.701302
0.724819
0.749963
0.776912
0.805873
0.837086
0.870829
0.907432
0.947287
0.990858
1.03871
1.09153
1.15017
1.21568
1.28941
1.37311
1.46908
1.58049
1.71178
1.86965
2.06489
2.31715
2.66964
3.24516
4.49951
8.40357
)
;

boundaryField
{
    top_wall
    {
        type            epsilonWallFunction;
        blending        stepwise;
        value           uniform 8.40357;
    }
    inlet
    {
        type            cyclic;
    }
    bot_wall
    {
        type            epsilonWallFunction;
        blending        stepwise;
        value           uniform 8.40357;
    }
    outlet
    {
        type            cyclic;
    }
    frontAndBack
    {
        type            empty;
    }
}


// ************************************************************************* //
