/*--------------------------------*- C++ -*----------------------------------*\
| =========                 |                                                 |
| \\      /  F ield         | OpenFOAM: The Open Source CFD Toolbox           |
|  \\    /   O peration     | Version:  2406                                  |
|   \\  /    A nd           | Website:  www.openfoam.com                      |
|    \\/     M anipulation  |                                                 |
\*---------------------------------------------------------------------------*/
FoamFile
{
    version     2.0;
    format      ascii;
    arch        "LSB;label=32;scalar=64";
    class       volScalarField;
    location    "22.66";
    object      k;
}
// * * * * * * * * * * * * * * * * * * * * * * * * * * * * * * * * * * * * * //

dimensions      [0 2 -2 0 0 0 0];

internalField   nonuniform List<scalar> 
1000
(
0.0479042
0.0501889
0.0624601
0.0748134
0.0847852
0.0925168
0.0985463
0.103325
0.107178
0.110332
0.112948
0.115142
0.116999
0.118584
0.119945
0.12112
0.122139
0.123026
0.1238
0.124476
0.125068
0.125586
0.12604
0.126436
0.126782
0.127084
0.127344
0.127569
0.127762
0.127925
0.128061
0.128174
0.128264
0.128335
0.128387
0.128422
0.128442
0.128447
0.128439
0.12842
0.128389
0.128347
0.128296
0.128236
0.128167
0.128091
0.128007
0.127917
0.12782
0.127717
0.127609
0.127495
0.127377
0.127253
0.127126
0.126994
0.126858
0.126719
0.126576
0.12643
0.126281
0.126129
0.125974
0.125817
0.125657
0.125494
0.12533
0.125163
0.124994
0.124824
0.124651
0.124477
0.124301
0.124124
0.123944
0.123764
0.123582
0.123399
0.123214
0.123029
0.122842
0.122654
0.122465
0.122275
0.122083
0.121891
0.121698
0.121505
0.12131
0.121114
0.120918
0.120721
0.120523
0.120325
0.120126
0.119926
0.119725
0.119524
0.119323
0.11912
0.118918
0.118714
0.11851
0.118306
0.118101
0.117896
0.11769
0.117483
0.117277
0.117069
0.116862
0.116654
0.116445
0.116236
0.116027
0.115817
0.115607
0.115396
0.115186
0.114974
0.114763
0.114551
0.114339
0.114126
0.113913
0.1137
0.113486
0.113272
0.113058
0.112843
0.112628
0.112413
0.112197
0.111981
0.111765
0.111548
0.111332
0.111114
0.110897
0.110679
0.110461
0.110243
0.110024
0.109805
0.109586
0.109366
0.109147
0.108926
0.108706
0.108485
0.108264
0.108043
0.107821
0.107599
0.107377
0.107155
0.106932
0.106709
0.106485
0.106262
0.106038
0.105813
0.105589
0.105364
0.105139
0.104913
0.104688
0.104461
0.104235
0.104008
0.103781
0.103554
0.103327
0.103099
0.10287
0.102642
0.102413
0.102184
0.101955
0.101725
0.101495
0.101264
0.101034
0.100803
0.100572
0.10034
0.100108
0.0998758
0.0996433
0.0994104
0.0991772
0.0989437
0.0987099
0.0984758
0.0982414
0.0980066
0.0977715
0.0975361
0.0973003
0.0970643
0.0968279
0.0965912
0.0963542
0.0961168
0.0958791
0.0956411
0.0954028
0.0951642
0.0949252
0.0946859
0.0944462
0.0942062
0.093966
0.0937253
0.0934844
0.0932431
0.0930015
0.0927595
0.0925173
0.0922747
0.0920317
0.0917885
0.0915449
0.0913009
0.0910567
0.0908121
0.0905672
0.090322
0.0900764
0.0898305
0.0895843
0.0893377
0.0890908
0.0888436
0.0885961
0.0883482
0.0881
0.0878515
0.0876027
0.0873535
0.087104
0.0868542
0.0866041
0.0863536
0.0861029
0.0858518
0.0856004
0.0853486
0.0850966
0.0848442
0.0845916
0.0843386
0.0840853
0.0838317
0.0835778
0.0833236
0.0830691
0.0828142
0.0825591
0.0823037
0.082048
0.0817919
0.0815356
0.081279
0.0810221
0.0807649
0.0805075
0.0802497
0.0799917
0.0797333
0.0794747
0.0792159
0.0789567
0.0786973
0.0784376
0.0781777
0.0779175
0.077657
0.0773963
0.0771353
0.0768741
0.0766126
0.0763509
0.076089
0.0758268
0.0755643
0.0753017
0.0750388
0.0747757
0.0745124
0.0742489
0.0739851
0.0737212
0.073457
0.0731927
0.0729282
0.0726634
0.0723985
0.0721334
0.0718682
0.0716027
0.0713371
0.0710714
0.0708055
0.0705394
0.0702732
0.0700069
0.0697404
0.0694738
0.0692071
0.0689403
0.0686733
0.0684063
0.0681391
0.0678719
0.0676046
0.0673372
0.0670698
0.0668023
0.0665347
0.0662671
0.0659994
0.0657317
0.065464
0.0651963
0.0649285
0.0646608
0.0643931
0.0641254
0.0638577
0.06359
0.0633224
0.0630548
0.0627873
0.0625199
0.0622525
0.0619853
0.0617181
0.0614511
0.0611841
0.0609173
0.0606507
0.0603842
0.0601178
0.0598516
0.0595857
0.0593199
0.0590543
0.0587889
0.0585238
0.0582589
0.0579943
0.0577299
0.0574659
0.0572021
0.0569386
0.0566755
0.0564127
0.0561502
0.0558881
0.0556264
0.0553651
0.0551042
0.0548438
0.0545837
0.0543241
0.054065
0.0538064
0.0535483
0.0532907
0.0530337
0.0527772
0.0525212
0.0522659
0.0520112
0.0517571
0.0515036
0.0512508
0.0509987
0.0507473
0.0504966
0.0502466
0.0499974
0.049749
0.0495013
0.0492545
0.0490086
0.0487635
0.0485192
0.0482759
0.0480335
0.047792
0.0475516
0.0473121
0.0470736
0.0468361
0.0465997
0.0463644
0.0461302
0.0458971
0.0456652
0.0454345
0.0452049
0.0449766
0.0447496
0.0445238
0.0442993
0.0440761
0.0438543
0.0436338
0.0434148
0.0431972
0.042981
0.0427663
0.0425531
0.0423415
0.0421314
0.0419229
0.041716
0.0415107
0.0413071
0.0411052
0.040905
0.0407066
0.0405099
0.040315
0.0401219
0.0399307
0.0397414
0.0395539
0.0393684
0.0391849
0.0390033
0.0388238
0.0386462
0.0384708
0.0382974
0.0381261
0.037957
0.03779
0.0376253
0.0374627
0.0373024
0.0371444
0.0369886
0.0368351
0.036684
0.0365353
0.0363889
0.0362449
0.0361034
0.0359643
0.0358277
0.0356936
0.035562
0.035433
0.0353065
0.0351826
0.0350612
0.0349425
0.0348265
0.0347131
0.0346024
0.0344943
0.034389
0.0342864
0.0341866
0.0340895
0.0339952
0.0339037
0.033815
0.0337291
0.033646
0.0335658
0.0334885
0.033414
0.0333424
0.0332737
0.0332079
0.0331451
0.0330851
0.0330281
0.0329741
0.032923
0.0328749
0.0328297
0.0327875
0.0327483
0.0327121
0.0326789
0.0326487
0.0326215
0.0325973
0.0325761
0.032558
0.0325429
0.0325308
0.0325217
0.0325156
0.0325126
0.0325126
0.0325156
0.0325217
0.0325308
0.0325429
0.032558
0.0325762
0.0325973
0.0326215
0.0326487
0.0326789
0.0327121
0.0327483
0.0327875
0.0328297
0.0328749
0.032923
0.0329741
0.0330281
0.0330851
0.0331451
0.0332079
0.0332737
0.0333424
0.033414
0.0334885
0.0335658
0.033646
0.0337291
0.033815
0.0339037
0.0339952
0.0340895
0.0341866
0.0342864
0.034389
0.0344943
0.0346024
0.0347131
0.0348265
0.0349425
0.0350612
0.0351826
0.0353065
0.035433
0.035562
0.0356936
0.0358277
0.0359643
0.0361034
0.0362449
0.0363889
0.0365353
0.036684
0.0368351
0.0369886
0.0371444
0.0373024
0.0374627
0.0376253
0.0377901
0.037957
0.0381261
0.0382974
0.0384708
0.0386462
0.0388238
0.0390033
0.0391849
0.0393684
0.0395539
0.0397414
0.0399307
0.0401219
0.040315
0.0405099
0.0407066
0.040905
0.0411052
0.0413071
0.0415107
0.041716
0.0419229
0.0421314
0.0423415
0.0425531
0.0427663
0.042981
0.0431972
0.0434148
0.0436338
0.0438543
0.0440761
0.0442993
0.0445238
0.0447496
0.0449766
0.0452049
0.0454345
0.0456652
0.0458972
0.0461302
0.0463644
0.0465997
0.0468361
0.0470736
0.0473121
0.0475516
0.047792
0.0480335
0.0482759
0.0485192
0.0487635
0.0490086
0.0492545
0.0495014
0.049749
0.0499974
0.0502466
0.0504966
0.0507473
0.0509987
0.0512508
0.0515036
0.0517571
0.0520112
0.0522659
0.0525212
0.0527772
0.0530337
0.0532907
0.0535483
0.0538064
0.0540651
0.0543242
0.0545837
0.0548438
0.0551042
0.0553651
0.0556265
0.0558882
0.0561502
0.0564127
0.0566755
0.0569386
0.0572021
0.0574659
0.0577299
0.0579943
0.0582589
0.0585238
0.0587889
0.0590543
0.0593199
0.0595857
0.0598516
0.0601178
0.0603842
0.0606507
0.0609173
0.0611841
0.0614511
0.0617181
0.0619853
0.0622525
0.0625199
0.0627873
0.0630548
0.0633224
0.06359
0.0638577
0.0641254
0.0643931
0.0646608
0.0649285
0.0651963
0.065464
0.0657317
0.0659994
0.0662671
0.0665347
0.0668022
0.0670698
0.0673372
0.0676046
0.0678719
0.0681391
0.0684063
0.0686733
0.0689403
0.0692071
0.0694738
0.0697404
0.0700069
0.0702732
0.0705394
0.0708055
0.0710714
0.0713371
0.0716027
0.0718682
0.0721334
0.0723985
0.0726634
0.0729282
0.0731927
0.073457
0.0737212
0.0739851
0.0742489
0.0745124
0.0747757
0.0750388
0.0753017
0.0755643
0.0758268
0.076089
0.0763509
0.0766126
0.0768741
0.0771353
0.0773963
0.077657
0.0779175
0.0781777
0.0784376
0.0786973
0.0789567
0.0792159
0.0794747
0.0797333
0.0799917
0.0802497
0.0805075
0.0807649
0.0810221
0.081279
0.0815356
0.0817919
0.082048
0.0823037
0.0825591
0.0828142
0.0830691
0.0833236
0.0835778
0.0838317
0.0840853
0.0843386
0.0845916
0.0848442
0.0850966
0.0853486
0.0856004
0.0858518
0.0861029
0.0863536
0.0866041
0.0868542
0.087104
0.0873535
0.0876027
0.0878515
0.0881
0.0883482
0.0885961
0.0888436
0.0890908
0.0893377
0.0895843
0.0898305
0.0900764
0.090322
0.0905672
0.0908121
0.0910567
0.0913009
0.0915449
0.0917885
0.0920317
0.0922746
0.0925173
0.0927595
0.0930015
0.0932431
0.0934844
0.0937253
0.0939659
0.0942062
0.0944462
0.0946859
0.0949252
0.0951642
0.0954028
0.0956411
0.0958791
0.0961168
0.0963542
0.0965912
0.0968279
0.0970643
0.0973003
0.0975361
0.0977715
0.0980066
0.0982414
0.0984758
0.0987099
0.0989437
0.0991772
0.0994104
0.0996433
0.0998758
0.100108
0.10034
0.100572
0.100803
0.101034
0.101264
0.101495
0.101725
0.101955
0.102184
0.102413
0.102642
0.10287
0.103099
0.103327
0.103554
0.103781
0.104008
0.104235
0.104461
0.104687
0.104913
0.105139
0.105364
0.105589
0.105813
0.106038
0.106262
0.106485
0.106709
0.106932
0.107155
0.107377
0.107599
0.107821
0.108043
0.108264
0.108485
0.108706
0.108926
0.109147
0.109366
0.109586
0.109805
0.110024
0.110243
0.110461
0.110679
0.110897
0.111114
0.111332
0.111548
0.111765
0.111981
0.112197
0.112413
0.112628
0.112843
0.113058
0.113272
0.113486
0.1137
0.113913
0.114126
0.114339
0.114551
0.114763
0.114974
0.115186
0.115396
0.115607
0.115817
0.116027
0.116236
0.116445
0.116654
0.116862
0.117069
0.117277
0.117483
0.11769
0.117896
0.118101
0.118306
0.11851
0.118714
0.118918
0.11912
0.119323
0.119524
0.119725
0.119926
0.120126
0.120325
0.120523
0.120721
0.120918
0.121114
0.12131
0.121505
0.121698
0.121891
0.122083
0.122274
0.122465
0.122654
0.122842
0.123029
0.123214
0.123399
0.123582
0.123764
0.123944
0.124123
0.124301
0.124477
0.124651
0.124824
0.124994
0.125163
0.12533
0.125494
0.125657
0.125817
0.125974
0.126129
0.126281
0.12643
0.126576
0.126719
0.126858
0.126994
0.127126
0.127253
0.127377
0.127495
0.127609
0.127717
0.12782
0.127917
0.128007
0.128091
0.128167
0.128236
0.128296
0.128347
0.128389
0.12842
0.128439
0.128447
0.128442
0.128422
0.128387
0.128335
0.128264
0.128174
0.128061
0.127925
0.127762
0.127569
0.127344
0.127083
0.126782
0.126436
0.12604
0.125586
0.125068
0.124476
0.1238
0.123026
0.122139
0.12112
0.119945
0.118584
0.116999
0.115142
0.112948
0.110332
0.107178
0.103325
0.0985463
0.0925168
0.0847851
0.0748134
0.06246
0.0501889
0.0479042
)
;

boundaryField
{
    top_wall
    {
        type            kLowReWallFunction;
        value           uniform 0.000169653;
    }
    inlet
    {
        type            cyclic;
    }
    bot_wall
    {
        type            kLowReWallFunction;
        value           uniform 0.000169653;
    }
    outlet
    {
        type            cyclic;
    }
    frontAndBack
    {
        type            empty;
    }
}


// ************************************************************************* //
