/*--------------------------------*- C++ -*----------------------------------*\
| =========                 |                                                 |
| \\      /  F ield         | OpenFOAM: The Open Source CFD Toolbox           |
|  \\    /   O peration     | Version:  2406                                  |
|   \\  /    A nd           | Website:  www.openfoam.com                      |
|    \\/     M anipulation  |                                                 |
\*---------------------------------------------------------------------------*/
FoamFile
{
    version     2.0;
    format      ascii;
    arch        "LSB;label=32;scalar=64";
    class       volScalarField;
    location    "22.66";
    object      nut;
}
// * * * * * * * * * * * * * * * * * * * * * * * * * * * * * * * * * * * * * //

dimensions      [0 2 -1 0 0 0 0];

internalField   nonuniform List<scalar> 
1000
(
2.45768e-05
5.0384e-05
0.000108196
0.00018869
0.000279207
0.000373067
0.000467479
0.000561314
0.000654127
0.000745757
0.000836167
0.000925376
0.00101343
0.00110036
0.00118624
0.00127111
0.00135501
0.00143799
0.00152009
0.00160133
0.00168176
0.00176141
0.00184029
0.00191843
0.00199586
0.0020726
0.00214866
0.00222407
0.00229883
0.00237297
0.00244649
0.00251942
0.00259176
0.00266352
0.00273471
0.00280535
0.00287544
0.00294499
0.00301401
0.00308251
0.0031505
0.00321798
0.00328495
0.00335143
0.00341742
0.00348293
0.00354796
0.00361251
0.0036766
0.00374022
0.00380339
0.00386609
0.00392835
0.00399016
0.00405153
0.00411246
0.00417295
0.00423301
0.00429264
0.00435184
0.00441062
0.00446897
0.00452691
0.00458444
0.00464155
0.00469825
0.00475454
0.00481043
0.00486592
0.004921
0.00497568
0.00502997
0.00508386
0.00513736
0.00519047
0.00524319
0.00529552
0.00534746
0.00539903
0.00545021
0.005501
0.00555142
0.00560146
0.00565113
0.00570042
0.00574934
0.00579788
0.00584606
0.00589387
0.0059413
0.00598838
0.00603508
0.00608142
0.0061274
0.00617302
0.00621828
0.00626318
0.00630772
0.00635191
0.00639573
0.00643921
0.00648233
0.0065251
0.00656751
0.00660958
0.0066513
0.00669266
0.00673368
0.00677436
0.00681469
0.00685467
0.00689432
0.00693362
0.00697257
0.00701119
0.00704947
0.00708741
0.00712501
0.00716228
0.0071992
0.0072358
0.00727206
0.00730799
0.00734358
0.00737885
0.00741378
0.00744838
0.00748266
0.0075166
0.00755023
0.00758352
0.00761649
0.00764913
0.00768146
0.00771346
0.00774513
0.00777649
0.00780753
0.00783824
0.00786864
0.00789873
0.00792849
0.00795794
0.00798708
0.0080159
0.00804441
0.0080726
0.00810049
0.00812806
0.00815532
0.00818228
0.00820893
0.00823527
0.0082613
0.00828703
0.00831246
0.00833758
0.0083624
0.00838691
0.00841113
0.00843504
0.00845866
0.00848198
0.008505
0.00852772
0.00855015
0.00857228
0.00859412
0.00861567
0.00863692
0.00865788
0.00867855
0.00869893
0.00871903
0.00873883
0.00875835
0.00877758
0.00879653
0.00881519
0.00883357
0.00885166
0.00886948
0.00888701
0.00890427
0.00892124
0.00893794
0.00895436
0.0089705
0.00898637
0.00900196
0.00901728
0.00903233
0.00904711
0.00906161
0.00907585
0.00908981
0.00910351
0.00911695
0.00913011
0.00914301
0.00915565
0.00916802
0.00918013
0.00919198
0.00920357
0.0092149
0.00922597
0.00923678
0.00924734
0.00925764
0.00926769
0.00927748
0.00928702
0.0092963
0.00930534
0.00931413
0.00932266
0.00933095
0.009339
0.00934679
0.00935434
0.00936165
0.00936872
0.00937554
0.00938212
0.00938846
0.00939456
0.00940042
0.00940605
0.00941144
0.0094166
0.00942152
0.0094262
0.00943066
0.00943488
0.00943888
0.00944265
0.00944618
0.00944949
0.00945258
0.00945544
0.00945807
0.00946049
0.00946268
0.00946465
0.0094664
0.00946793
0.00946925
0.00947035
0.00947123
0.0094719
0.00947236
0.0094726
0.00947263
0.00947246
0.00947207
0.00947148
0.00947067
0.00946967
0.00946846
0.00946704
0.00946543
0.00946361
0.00946159
0.00945938
0.00945697
0.00945436
0.00945155
0.00944855
0.00944536
0.00944198
0.0094384
0.00943464
0.00943069
0.00942655
0.00942222
0.00941771
0.00941302
0.00940815
0.00940309
0.00939785
0.00939244
0.00938685
0.00938108
0.00937514
0.00936903
0.00936274
0.00935628
0.00934966
0.00934286
0.0093359
0.00932877
0.00932148
0.00931403
0.00930641
0.00929864
0.0092907
0.00928261
0.00927437
0.00926597
0.00925741
0.00924871
0.00923985
0.00923085
0.0092217
0.0092124
0.00920296
0.00919338
0.00918365
0.00917379
0.00916379
0.00915365
0.00914338
0.00913297
0.00912244
0.00911177
0.00910097
0.00909005
0.009079
0.00906783
0.00905654
0.00904513
0.0090336
0.00902195
0.00901019
0.00899832
0.00898633
0.00897424
0.00896204
0.00894973
0.00893732
0.00892481
0.0089122
0.00889949
0.00888668
0.00887378
0.00886079
0.00884771
0.00883454
0.00882129
0.00880795
0.00879453
0.00878103
0.00876745
0.0087538
0.00874007
0.00872628
0.00871241
0.00869848
0.00868449
0.00867043
0.00865632
0.00864214
0.00862792
0.00861364
0.00859931
0.00858493
0.00857051
0.00855605
0.00854154
0.008527
0.00851243
0.00849782
0.00848318
0.00846852
0.00845383
0.00843912
0.00842439
0.00840965
0.00839489
0.00838012
0.00836535
0.00835056
0.00833578
0.008321
0.00830622
0.00829145
0.00827669
0.00826194
0.00824721
0.00823249
0.0082178
0.00820313
0.00818849
0.00817388
0.00815931
0.00814477
0.00813027
0.00811582
0.00810141
0.00808705
0.00807274
0.00805849
0.0080443
0.00803017
0.0080161
0.00800211
0.00798819
0.00797434
0.00796057
0.00794688
0.00793327
0.00791975
0.00790633
0.00789299
0.00787976
0.00786662
0.00785359
0.00784066
0.00782784
0.00781514
0.00780255
0.00779007
0.00777772
0.00776549
0.00775339
0.00774142
0.00772958
0.00771787
0.00770631
0.00769488
0.00768359
0.00767245
0.00766145
0.00765061
0.00763991
0.00762937
0.00761899
0.00760876
0.00759869
0.00758878
0.00757904
0.00756946
0.00756004
0.0075508
0.00754172
0.00753281
0.00752407
0.0075155
0.00750711
0.00749889
0.00749084
0.00748297
0.00747527
0.00746774
0.00746039
0.00745322
0.00744622
0.0074394
0.00743275
0.00742627
0.00741996
0.00741383
0.00740787
0.00740208
0.00739646
0.00739101
0.00738572
0.0073806
0.00737564
0.00737085
0.00736621
0.00736174
0.00735742
0.00735325
0.00734924
0.00734538
0.00734166
0.0073381
0.00733467
0.00733139
0.00732825
0.00732524
0.00732237
0.00731963
0.00731702
0.00731454
0.00731218
0.00730994
0.00730783
0.00730583
0.00730394
0.00730218
0.00730052
0.00729897
0.00729753
0.00729619
0.00729496
0.00729383
0.00729279
0.00729186
0.00729103
0.00729029
0.00728964
0.00728909
0.00728864
0.00728827
0.007288
0.00728782
0.00728772
0.00728772
0.00728782
0.007288
0.00728827
0.00728864
0.00728909
0.00728964
0.00729029
0.00729103
0.00729186
0.0072928
0.00729383
0.00729496
0.00729619
0.00729753
0.00729897
0.00730052
0.00730218
0.00730395
0.00730583
0.00730783
0.00730994
0.00731218
0.00731454
0.00731702
0.00731963
0.00732237
0.00732524
0.00732825
0.00733139
0.00733467
0.0073381
0.00734166
0.00734538
0.00734924
0.00735325
0.00735742
0.00736174
0.00736621
0.00737085
0.00737564
0.0073806
0.00738572
0.00739101
0.00739646
0.00740208
0.00740787
0.00741383
0.00741996
0.00742627
0.00743275
0.0074394
0.00744622
0.00745322
0.00746039
0.00746774
0.00747527
0.00748297
0.00749084
0.00749889
0.00750711
0.0075155
0.00752407
0.00753281
0.00754172
0.0075508
0.00756004
0.00756946
0.00757904
0.00758878
0.00759869
0.00760876
0.00761899
0.00762937
0.00763991
0.00765061
0.00766145
0.00767245
0.00768359
0.00769488
0.00770631
0.00771787
0.00772958
0.00774142
0.00775339
0.00776549
0.00777772
0.00779007
0.00780255
0.00781514
0.00782784
0.00784066
0.00785359
0.00786662
0.00787976
0.00789299
0.00790633
0.00791975
0.00793327
0.00794688
0.00796057
0.00797434
0.00798819
0.00800211
0.0080161
0.00803017
0.0080443
0.00805849
0.00807274
0.00808705
0.00810141
0.00811582
0.00813027
0.00814477
0.00815931
0.00817388
0.00818849
0.00820313
0.0082178
0.00823249
0.00824721
0.00826194
0.00827669
0.00829145
0.00830622
0.008321
0.00833578
0.00835057
0.00836535
0.00838012
0.00839489
0.00840965
0.00842439
0.00843912
0.00845383
0.00846852
0.00848318
0.00849782
0.00851243
0.008527
0.00854154
0.00855605
0.00857051
0.00858493
0.00859931
0.00861364
0.00862792
0.00864214
0.00865631
0.00867043
0.00868449
0.00869848
0.00871241
0.00872628
0.00874007
0.0087538
0.00876745
0.00878103
0.00879452
0.00880794
0.00882128
0.00883454
0.00884771
0.00886079
0.00887378
0.00888668
0.00889948
0.00891219
0.00892481
0.00893732
0.00894973
0.00896203
0.00897424
0.00898633
0.00899831
0.00901019
0.00902195
0.00903359
0.00904512
0.00905654
0.00906783
0.009079
0.00909005
0.00910097
0.00911176
0.00912243
0.00913297
0.00914337
0.00915365
0.00916378
0.00917379
0.00918365
0.00919337
0.00920296
0.0092124
0.00922169
0.00923084
0.00923985
0.0092487
0.00925741
0.00926596
0.00927436
0.00928261
0.0092907
0.00929863
0.00930641
0.00931402
0.00932148
0.00932877
0.00933589
0.00934286
0.00934965
0.00935628
0.00936274
0.00936902
0.00937514
0.00938108
0.00938684
0.00939244
0.00939785
0.00940308
0.00940814
0.00941302
0.00941771
0.00942222
0.00942654
0.00943068
0.00943463
0.0094384
0.00944197
0.00944535
0.00944855
0.00945155
0.00945435
0.00945696
0.00945937
0.00946159
0.00946361
0.00946542
0.00946704
0.00946845
0.00946966
0.00947067
0.00947147
0.00947206
0.00947245
0.00947263
0.00947259
0.00947235
0.00947189
0.00947123
0.00947034
0.00946924
0.00946793
0.0094664
0.00946464
0.00946267
0.00946048
0.00945807
0.00945543
0.00945257
0.00944949
0.00944618
0.00944264
0.00943887
0.00943488
0.00943066
0.0094262
0.00942151
0.00941659
0.00941144
0.00940605
0.00940042
0.00939456
0.00938845
0.00938211
0.00937553
0.00936871
0.00936165
0.00935434
0.00934679
0.00933899
0.00933095
0.00932266
0.00931412
0.00930534
0.0092963
0.00928701
0.00927747
0.00926768
0.00925764
0.00924733
0.00923678
0.00922597
0.00921489
0.00920357
0.00919198
0.00918013
0.00916802
0.00915564
0.00914301
0.00913011
0.00911694
0.00910351
0.00908981
0.00907584
0.00906161
0.0090471
0.00903233
0.00901728
0.00900196
0.00898637
0.0089705
0.00895435
0.00893793
0.00892124
0.00890426
0.00888701
0.00886947
0.00885166
0.00883356
0.00881519
0.00879652
0.00877758
0.00875835
0.00873883
0.00871902
0.00869893
0.00867855
0.00865788
0.00863692
0.00861566
0.00859412
0.00857228
0.00855015
0.00852772
0.008505
0.00848198
0.00845866
0.00843504
0.00841113
0.00838691
0.00836239
0.00833758
0.00831245
0.00828703
0.0082613
0.00823527
0.00820893
0.00818228
0.00815532
0.00812806
0.00810048
0.0080726
0.0080444
0.0080159
0.00798707
0.00795794
0.00792849
0.00789872
0.00786864
0.00783824
0.00780752
0.00777649
0.00774513
0.00771345
0.00768145
0.00764913
0.00761649
0.00758352
0.00755022
0.0075166
0.00748266
0.00744838
0.00741378
0.00737884
0.00734358
0.00730799
0.00727206
0.0072358
0.0071992
0.00716227
0.00712501
0.00708741
0.00704947
0.00701119
0.00697257
0.00693362
0.00689432
0.00685467
0.00681469
0.00677436
0.00673368
0.00669266
0.00665129
0.00660958
0.00656751
0.0065251
0.00648233
0.00643921
0.00639573
0.00635191
0.00630772
0.00626318
0.00621828
0.00617302
0.0061274
0.00608142
0.00603508
0.00598838
0.0059413
0.00589386
0.00584606
0.00579788
0.00574934
0.00570042
0.00565113
0.00560146
0.00555142
0.005501
0.00545021
0.00539903
0.00534746
0.00529552
0.00524319
0.00519047
0.00513736
0.00508386
0.00502997
0.00497568
0.004921
0.00486591
0.00481043
0.00475454
0.00469825
0.00464155
0.00458444
0.00452691
0.00446897
0.00441062
0.00435184
0.00429264
0.00423301
0.00417295
0.00411246
0.00405153
0.00399016
0.00392835
0.00386609
0.00380339
0.00374022
0.0036766
0.00361251
0.00354796
0.00348293
0.00341742
0.00335143
0.00328495
0.00321798
0.0031505
0.00308251
0.00301401
0.00294499
0.00287544
0.00280535
0.00273471
0.00266352
0.00259176
0.00251942
0.00244649
0.00237297
0.00229883
0.00222407
0.00214866
0.0020726
0.00199586
0.00191843
0.00184029
0.00176141
0.00168176
0.00160133
0.00152009
0.00143799
0.00135501
0.00127111
0.00118624
0.00110036
0.00101342
0.000925376
0.000836167
0.000745757
0.000654127
0.000561314
0.000467479
0.000373067
0.000279207
0.00018869
0.000108196
5.0384e-05
2.45768e-05
)
;

boundaryField
{
    top_wall
    {
        type            nutLowReWallFunction;
        value           uniform 0;
    }
    inlet
    {
        type            cyclic;
    }
    bot_wall
    {
        type            nutLowReWallFunction;
        value           uniform 0;
    }
    outlet
    {
        type            cyclic;
    }
    frontAndBack
    {
        type            empty;
    }
}


// ************************************************************************* //
