/*--------------------------------*- C++ -*----------------------------------*\
| =========                 |                                                 |
| \\      /  F ield         | OpenFOAM: The Open Source CFD Toolbox           |
|  \\    /   O peration     | Version:  2406                                  |
|   \\  /    A nd           | Website:  www.openfoam.com                      |
|    \\/     M anipulation  |                                                 |
\*---------------------------------------------------------------------------*/
FoamFile
{
    version     2.0;
    format      ascii;
    arch        "LSB;label=32;scalar=64";
    class       volScalarField;
    location    "22.66";
    object      p;
}
// * * * * * * * * * * * * * * * * * * * * * * * * * * * * * * * * * * * * * //

dimensions      [0 2 -2 0 0 0 0];

internalField   nonuniform List<scalar> 
1000
(
2.35989e-19
1.43676e-18
1.7301e-18
1.68784e-18
1.61398e-18
1.56923e-18
1.54282e-18
1.59357e-18
1.73142e-18
1.55211e-18
1.35456e-18
1.36996e-18
1.23666e-18
1.20083e-18
9.71049e-19
1.134e-18
1.22029e-18
1.17476e-18
1.12687e-18
1.07665e-18
1.02412e-18
9.69302e-19
9.12222e-19
8.52901e-19
7.91358e-19
7.27615e-19
6.61691e-19
5.93605e-19
5.23375e-19
4.5102e-19
3.76558e-19
3.00005e-19
2.2138e-19
1.40697e-19
5.79751e-20
-2.67712e-20
-1.13526e-19
-2.02273e-19
-2.92998e-19
-3.85686e-19
-4.80321e-19
-5.76889e-19
-6.75375e-19
-7.75766e-19
-8.78048e-19
-9.82205e-19
-1.08823e-18
-1.19609e-18
-1.3058e-18
-1.41733e-18
-1.53066e-18
-1.64579e-18
-1.76271e-18
-1.8814e-18
-2.00184e-18
-2.12403e-18
-2.24795e-18
-2.37359e-18
-2.50093e-18
-2.62998e-18
-2.76071e-18
-2.8931e-18
-3.02716e-18
-3.16287e-18
-3.30021e-18
-3.43917e-18
-3.57975e-18
-3.72192e-18
-3.86569e-18
-4.01103e-18
-4.15794e-18
-4.30641e-18
-4.45641e-18
-4.60795e-18
-4.76102e-18
-4.91559e-18
-5.07166e-18
-5.22921e-18
-5.38825e-18
-5.54875e-18
-5.7107e-18
-5.8741e-18
-6.03893e-18
-6.20519e-18
-6.37285e-18
-6.54192e-18
-6.71238e-18
-6.88422e-18
-7.05742e-18
-7.23199e-18
-7.4079e-18
-7.58516e-18
-7.76373e-18
-7.94363e-18
-8.12484e-18
-8.30734e-18
-8.49112e-18
-8.67618e-18
-8.86251e-18
-9.0501e-18
-9.23893e-18
-9.42899e-18
-9.62028e-18
-9.81278e-18
-1.00065e-17
-1.02014e-17
-1.03975e-17
-1.05948e-17
-1.07932e-17
-1.09928e-17
-1.11935e-17
-1.13954e-17
-1.15984e-17
-1.18025e-17
-1.20077e-17
-1.2214e-17
-1.24214e-17
-1.26299e-17
-1.28395e-17
-1.30501e-17
-1.32617e-17
-1.34744e-17
-1.36881e-17
-1.39029e-17
-1.41186e-17
-1.43354e-17
-1.45531e-17
-1.47719e-17
-1.49916e-17
-1.52123e-17
-1.54339e-17
-1.56564e-17
-1.588e-17
-1.61044e-17
-1.63297e-17
-1.6556e-17
-1.67831e-17
-1.70112e-17
-1.72401e-17
-1.72401e-17
-1.65481e-17
-1.72427e-17
-1.72427e-17
-1.72427e-17
-1.72427e-17
-1.72427e-17
-1.7714e-17
-1.7714e-17
-1.7714e-17
-1.7714e-17
-1.7714e-17
-1.7714e-17
-1.7714e-17
-1.7714e-17
-1.7714e-17
-1.7714e-17
-1.7714e-17
-1.7714e-17
-1.7714e-17
-1.7714e-17
-1.7714e-17
-1.7714e-17
-1.7714e-17
-1.7714e-17
-1.7714e-17
-1.7714e-17
-1.7714e-17
-1.7714e-17
-1.7714e-17
-1.7714e-17
-1.92287e-17
-2.17591e-17
-1.92228e-17
-1.8206e-17
-1.87156e-17
-1.92262e-17
-1.9738e-17
-2.02509e-17
-2.07648e-17
-2.12798e-17
-2.17959e-17
-2.23129e-17
-2.2831e-17
-2.33501e-17
-2.38701e-17
-2.43911e-17
-2.49131e-17
-2.54359e-17
-2.59597e-17
-2.64844e-17
-2.701e-17
-2.75364e-17
-2.80637e-17
-2.85918e-17
-2.91208e-17
-2.96505e-17
-3.01811e-17
-3.07124e-17
-3.12444e-17
-3.17772e-17
-3.23108e-17
-3.2845e-17
-3.44499e-17
-3.71281e-17
-3.49829e-17
-3.39089e-17
-3.39089e-17
-3.39089e-17
-3.39089e-17
-3.39089e-17
-3.39089e-17
-3.39089e-17
-3.39089e-17
-3.39089e-17
-3.39089e-17
-3.39089e-17
-3.39089e-17
-3.39089e-17
-3.39089e-17
-3.39089e-17
-3.39089e-17
-3.39089e-17
-3.39089e-17
-3.39089e-17
-3.39089e-17
-3.39089e-17
-3.39089e-17
-3.39089e-17
-3.39089e-17
-3.39089e-17
-3.39089e-17
-3.39089e-17
-3.39089e-17
-3.39089e-17
-3.39089e-17
-3.39089e-17
-3.39089e-17
-3.39089e-17
-3.39089e-17
-3.39089e-17
-3.39089e-17
-3.39089e-17
-3.39089e-17
-3.39089e-17
-3.39089e-17
-3.39089e-17
-3.39089e-17
-3.39089e-17
-3.39089e-17
-3.39089e-17
-3.39089e-17
-3.39089e-17
-3.39089e-17
-3.39089e-17
-3.39089e-17
-3.39089e-17
-3.39089e-17
-3.39089e-17
-3.39089e-17
-3.39089e-17
-3.39089e-17
-3.39089e-17
-3.39089e-17
-3.39089e-17
-3.39089e-17
-3.39089e-17
-3.39089e-17
-3.39089e-17
-3.39089e-17
-3.39089e-17
-3.39089e-17
-3.39089e-17
-3.39089e-17
-3.39089e-17
-3.39089e-17
-3.39089e-17
-3.39089e-17
-3.39089e-17
-3.39089e-17
-3.39089e-17
-3.39089e-17
-3.39089e-17
-3.39089e-17
-3.39089e-17
-3.39089e-17
-3.39089e-17
-3.39089e-17
-3.39089e-17
-3.39089e-17
-3.39089e-17
-3.39089e-17
-3.39089e-17
-3.39089e-17
-3.39089e-17
-3.39089e-17
-3.39089e-17
-3.39089e-17
-3.39089e-17
-3.39089e-17
-3.39089e-17
-3.39089e-17
-3.39089e-17
-3.39089e-17
-3.39089e-17
-3.39089e-17
-3.39089e-17
-3.39089e-17
-3.39089e-17
-3.39089e-17
-3.39089e-17
-3.39089e-17
-3.39089e-17
-3.39089e-17
-3.39089e-17
-3.39089e-17
-3.39089e-17
-3.39089e-17
-3.39089e-17
-3.39089e-17
-3.39089e-17
-3.39089e-17
-3.39089e-17
-3.39089e-17
-3.39089e-17
-3.39089e-17
-3.39089e-17
-3.39089e-17
-3.39089e-17
-3.39089e-17
-3.39089e-17
-3.39089e-17
-3.39089e-17
-3.39089e-17
-3.39089e-17
-3.39089e-17
-3.39089e-17
-3.39089e-17
-3.39089e-17
-3.39089e-17
-3.39089e-17
-3.39089e-17
-3.39089e-17
-3.39089e-17
-3.39089e-17
-3.39089e-17
-3.39089e-17
-3.39089e-17
-3.39089e-17
-3.39089e-17
-3.39089e-17
-3.39089e-17
-3.39089e-17
-3.39089e-17
-3.39089e-17
-3.39089e-17
-3.39089e-17
-3.39089e-17
-3.39089e-17
-3.39089e-17
-3.39089e-17
-3.39089e-17
-3.39089e-17
-3.39089e-17
-3.39089e-17
-3.39089e-17
-3.39089e-17
-3.39089e-17
-3.39089e-17
-3.39089e-17
-3.39089e-17
-3.39089e-17
-3.39089e-17
-3.39089e-17
-3.39089e-17
-3.39089e-17
-3.39089e-17
-3.39089e-17
-3.39089e-17
-3.39089e-17
-3.39089e-17
-3.39089e-17
-3.39089e-17
-3.39089e-17
-3.39089e-17
-3.39089e-17
-3.39089e-17
-3.39089e-17
-3.39089e-17
-3.39089e-17
-3.39089e-17
-3.39089e-17
-3.39089e-17
-3.39089e-17
-3.39089e-17
-3.39089e-17
-3.39089e-17
-3.39089e-17
-3.39089e-17
-3.39089e-17
-3.39089e-17
-3.39089e-17
-3.39089e-17
-3.39089e-17
-3.39089e-17
-3.39089e-17
-3.39089e-17
-3.39089e-17
-3.39089e-17
-3.39089e-17
-3.39089e-17
-3.39089e-17
-3.39089e-17
-3.39089e-17
-3.39089e-17
-3.39089e-17
-3.39089e-17
-3.39089e-17
-3.39089e-17
-3.39089e-17
-3.39089e-17
-3.39089e-17
-3.39089e-17
-3.39089e-17
-3.39089e-17
-3.39089e-17
-3.39089e-17
-3.39089e-17
-3.39089e-17
-3.39089e-17
-3.39089e-17
-3.39089e-17
-3.39089e-17
-3.39089e-17
-3.39089e-17
-3.39089e-17
-3.39089e-17
-3.39089e-17
-3.39089e-17
-3.39089e-17
-3.39089e-17
-3.39089e-17
-3.39089e-17
-3.39089e-17
-3.39089e-17
-3.39089e-17
-3.39089e-17
-3.39089e-17
-3.39089e-17
-3.39089e-17
-3.39089e-17
-3.39089e-17
-3.39089e-17
-3.39089e-17
-3.39089e-17
-3.39089e-17
-3.39089e-17
-3.39089e-17
-3.39089e-17
-3.39089e-17
-3.39089e-17
-3.39089e-17
-3.39089e-17
-3.39089e-17
-3.39089e-17
-3.39089e-17
-3.39089e-17
-3.39089e-17
-3.39089e-17
-3.39089e-17
-3.39089e-17
-3.39089e-17
-3.39089e-17
-3.39089e-17
-3.39089e-17
-3.39089e-17
-3.39089e-17
-3.39089e-17
-3.39089e-17
-3.39089e-17
-3.39089e-17
-3.39089e-17
-3.39089e-17
-3.39089e-17
-3.39089e-17
-3.39089e-17
-3.39089e-17
-3.39089e-17
-3.39089e-17
-3.39089e-17
-3.39089e-17
-3.39089e-17
-3.39089e-17
-3.39089e-17
-3.39089e-17
-3.39089e-17
-3.39089e-17
-3.39089e-17
-3.39089e-17
-3.39089e-17
-3.39089e-17
-3.39089e-17
-3.39089e-17
-3.39089e-17
-3.39089e-17
-3.39089e-17
-3.39089e-17
-3.39089e-17
-3.39089e-17
-3.39089e-17
-3.39089e-17
-3.39089e-17
-3.39089e-17
-3.39089e-17
-3.39089e-17
-3.39089e-17
-3.39089e-17
-3.39089e-17
-3.39089e-17
-3.39089e-17
-3.39089e-17
-3.39089e-17
-3.39089e-17
-3.39089e-17
-3.39089e-17
-3.39089e-17
-3.39089e-17
-3.39089e-17
-3.39089e-17
-3.39089e-17
-3.39089e-17
-3.39089e-17
-3.39089e-17
-3.39089e-17
-3.39089e-17
-3.39089e-17
-3.39089e-17
-3.39089e-17
-3.39089e-17
-3.39089e-17
-3.39089e-17
-3.39089e-17
-3.39089e-17
-3.39089e-17
-3.39089e-17
-3.39089e-17
-3.39089e-17
-3.39089e-17
-3.39089e-17
-3.39089e-17
-3.39089e-17
-3.39089e-17
-3.39089e-17
-3.39089e-17
-3.39089e-17
-3.39089e-17
-3.39089e-17
-3.39089e-17
-3.39089e-17
-3.39089e-17
-3.39089e-17
-3.39089e-17
-3.39089e-17
-3.39089e-17
-3.39089e-17
-3.39089e-17
-3.39089e-17
-3.39089e-17
-3.39089e-17
-3.39089e-17
-3.39089e-17
-3.39089e-17
-3.39089e-17
-3.39089e-17
-3.39089e-17
-3.39089e-17
-3.39089e-17
-3.39089e-17
-3.39089e-17
-3.39089e-17
-3.39089e-17
-3.39089e-17
-3.39089e-17
-3.39089e-17
-3.39089e-17
-3.39089e-17
-3.39089e-17
-3.39089e-17
-3.39089e-17
-3.39089e-17
-3.39089e-17
-3.39089e-17
-3.39089e-17
-3.39089e-17
-3.39089e-17
-3.39089e-17
-3.39089e-17
-3.39089e-17
-3.39089e-17
-3.39089e-17
-3.39089e-17
-3.39089e-17
-3.39089e-17
-3.39089e-17
-3.39089e-17
-3.39089e-17
-3.39089e-17
-3.39089e-17
-3.39089e-17
-3.39089e-17
-3.39089e-17
-3.39089e-17
-3.39089e-17
-3.39089e-17
-3.39089e-17
-3.39089e-17
-3.39089e-17
-3.39089e-17
-3.39089e-17
-3.39089e-17
-3.39089e-17
-3.39089e-17
-3.39089e-17
-3.39089e-17
-3.39089e-17
-3.39089e-17
-3.39089e-17
-3.39089e-17
-3.39089e-17
-3.39089e-17
-3.39089e-17
-3.39089e-17
-3.39089e-17
-3.39089e-17
-3.39089e-17
-3.39089e-17
-3.39089e-17
-3.39089e-17
-3.39089e-17
-3.39089e-17
-3.39089e-17
-3.39089e-17
-3.39089e-17
-3.39089e-17
-3.39089e-17
-3.39089e-17
-3.39089e-17
-3.39089e-17
-3.39089e-17
-3.39089e-17
-3.39089e-17
-3.39089e-17
-3.39089e-17
-3.39089e-17
-3.39089e-17
-3.39089e-17
-3.39089e-17
-3.39089e-17
-3.39089e-17
-3.39089e-17
-3.39089e-17
-3.39089e-17
-3.39089e-17
-3.39089e-17
-3.39089e-17
-3.39089e-17
-3.39089e-17
-3.39089e-17
-3.39089e-17
-3.39089e-17
-3.39089e-17
-3.39089e-17
-3.39089e-17
-3.39089e-17
-3.39089e-17
-3.39089e-17
-3.39089e-17
-3.39089e-17
-3.39089e-17
-3.39089e-17
-3.39089e-17
-3.39089e-17
-3.39089e-17
-3.39089e-17
-3.39089e-17
-3.39089e-17
-3.39089e-17
-3.39089e-17
-3.39089e-17
-3.39089e-17
-3.39089e-17
-3.39089e-17
-3.39089e-17
-3.39089e-17
-3.39089e-17
-3.39089e-17
-3.39089e-17
-3.39089e-17
-3.39089e-17
-3.39089e-17
-3.39089e-17
-3.39089e-17
-3.39089e-17
-3.39089e-17
-3.39089e-17
-3.39089e-17
-3.39089e-17
-3.39089e-17
-3.39089e-17
-3.39089e-17
-3.39089e-17
-3.39089e-17
-3.39089e-17
-3.39089e-17
-3.39089e-17
-3.39089e-17
-3.39089e-17
-3.39089e-17
-3.39089e-17
-3.39089e-17
-3.39089e-17
-3.39089e-17
-3.39089e-17
-3.39089e-17
-3.39089e-17
-3.39089e-17
-3.39089e-17
-3.39089e-17
-3.39089e-17
-3.39089e-17
-3.39089e-17
-3.39089e-17
-3.39089e-17
-3.39089e-17
-3.39089e-17
-3.39089e-17
-3.39089e-17
-3.39089e-17
-3.39089e-17
-3.39089e-17
-3.39089e-17
-3.39089e-17
-3.39089e-17
-3.39089e-17
-3.39089e-17
-3.39089e-17
-3.39089e-17
-3.39089e-17
-3.39089e-17
-3.39089e-17
-3.39089e-17
-3.39089e-17
-3.39089e-17
-3.39089e-17
-3.39089e-17
-3.39089e-17
-3.39089e-17
-3.39089e-17
-3.39089e-17
-3.39089e-17
-3.39089e-17
-3.39089e-17
-3.39089e-17
-3.39089e-17
-3.39089e-17
-3.39089e-17
-3.39089e-17
-3.39089e-17
-3.39089e-17
-3.39089e-17
-3.39089e-17
-3.39089e-17
-3.39089e-17
-3.39089e-17
-3.39089e-17
-3.39089e-17
-3.39089e-17
-3.39089e-17
-3.39089e-17
-3.39089e-17
-3.39089e-17
-3.39089e-17
-3.39089e-17
-3.39089e-17
-3.39089e-17
-3.39089e-17
-3.39089e-17
-3.39089e-17
-3.39089e-17
-3.39089e-17
-3.39089e-17
-3.39089e-17
-3.39089e-17
-3.39089e-17
-3.39089e-17
-3.39089e-17
-3.39089e-17
-3.39089e-17
-3.39089e-17
-3.39089e-17
-3.39089e-17
-3.39089e-17
-3.39089e-17
-3.39089e-17
-3.39089e-17
-3.39089e-17
-3.39089e-17
-3.39089e-17
-3.39089e-17
-3.39089e-17
-3.39089e-17
-3.39089e-17
-3.39089e-17
-3.39089e-17
-3.39089e-17
-3.39089e-17
-3.39089e-17
-3.39089e-17
-3.39089e-17
-3.39089e-17
-3.39089e-17
-3.39089e-17
-3.39089e-17
-3.39089e-17
-3.39089e-17
-3.39089e-17
-3.39089e-17
-3.39089e-17
-3.39089e-17
-3.39089e-17
-3.39089e-17
-3.39089e-17
-3.39089e-17
-3.39089e-17
-3.39089e-17
-3.39089e-17
-3.39089e-17
-3.39089e-17
-3.39089e-17
-3.39089e-17
-3.39089e-17
-3.39089e-17
-3.39089e-17
-3.39089e-17
-3.39089e-17
-3.39089e-17
-3.39089e-17
-3.39089e-17
-3.39089e-17
-3.39089e-17
-3.39089e-17
-3.39089e-17
-3.39089e-17
-3.39089e-17
-3.39089e-17
-3.39089e-17
-3.39089e-17
-3.39089e-17
-3.39089e-17
-3.39089e-17
-3.39089e-17
-3.39089e-17
-3.39089e-17
-3.39089e-17
-3.39089e-17
-3.39089e-17
-3.39089e-17
-3.39089e-17
-3.39089e-17
-3.39089e-17
-3.39089e-17
-3.39089e-17
-3.39089e-17
-3.39089e-17
-3.39089e-17
-3.39089e-17
-3.39089e-17
-3.39089e-17
-3.39089e-17
-3.39089e-17
-3.39089e-17
-3.39089e-17
-3.39089e-17
-3.39089e-17
-3.39089e-17
-3.39089e-17
-3.39089e-17
-3.39089e-17
-3.39089e-17
-3.39089e-17
-3.39089e-17
-3.39089e-17
-3.39089e-17
-3.39089e-17
-3.39089e-17
-3.39089e-17
-3.39089e-17
-3.39089e-17
-3.39089e-17
-3.39089e-17
-3.39089e-17
-3.39089e-17
-3.39089e-17
-3.39089e-17
-3.39089e-17
-3.39089e-17
-3.39089e-17
-3.39089e-17
-3.39089e-17
-3.39089e-17
-3.39089e-17
-3.39089e-17
-3.39089e-17
-3.39089e-17
-3.39089e-17
-3.39089e-17
-3.39089e-17
-3.39089e-17
-3.39089e-17
-3.39089e-17
-3.39089e-17
-3.39089e-17
-3.39089e-17
-3.39089e-17
-3.39089e-17
-3.39089e-17
-3.39089e-17
-3.39089e-17
-3.39089e-17
-3.39089e-17
-3.39089e-17
-3.39089e-17
-3.39089e-17
-3.39089e-17
-3.39089e-17
-3.39089e-17
-3.39089e-17
-3.39089e-17
-3.39089e-17
-3.39089e-17
-3.39089e-17
-3.39089e-17
-3.39089e-17
-3.39089e-17
-3.39089e-17
-3.39089e-17
-3.39089e-17
-3.39089e-17
-3.39089e-17
-3.39089e-17
-3.39089e-17
-3.39089e-17
-3.39089e-17
-3.39089e-17
-3.39089e-17
-3.39089e-17
-3.39089e-17
-3.39089e-17
-3.39089e-17
-3.39089e-17
-3.39089e-17
-3.39089e-17
-3.39089e-17
-3.39089e-17
-3.39089e-17
-3.39089e-17
-3.39089e-17
-3.39089e-17
-3.39089e-17
-3.39089e-17
-3.39089e-17
-3.39089e-17
-3.39089e-17
-3.39089e-17
-3.39089e-17
-3.39089e-17
-3.39089e-17
-3.39089e-17
-3.39089e-17
-3.39089e-17
-3.39089e-17
-3.39089e-17
-3.39089e-17
-3.39089e-17
-3.39089e-17
-3.39089e-17
-3.39089e-17
-3.39089e-17
-3.39089e-17
-3.39089e-17
-3.39089e-17
-3.39089e-17
-3.39089e-17
-3.39089e-17
-3.39089e-17
-3.39089e-17
-3.39089e-17
-3.39089e-17
-3.39089e-17
-3.39089e-17
-3.39089e-17
)
;

boundaryField
{
    top_wall
    {
        type            zeroGradient;
    }
    inlet
    {
        type            cyclic;
    }
    bot_wall
    {
        type            zeroGradient;
    }
    outlet
    {
        type            cyclic;
    }
    frontAndBack
    {
        type            empty;
    }
}


// ************************************************************************* //
