/*--------------------------------*- C++ -*----------------------------------*\
| =========                 |                                                 |
| \\      /  F ield         | OpenFOAM: The Open Source CFD Toolbox           |
|  \\    /   O peration     | Version:  2406                                  |
|   \\  /    A nd           | Website:  www.openfoam.com                      |
|    \\/     M anipulation  |                                                 |
\*---------------------------------------------------------------------------*/
FoamFile
{
    version     2.0;
    format      ascii;
    arch        "LSB;label=32;scalar=64";
    class       surfaceScalarField;
    location    "22.66";
    object      phi;
}
// * * * * * * * * * * * * * * * * * * * * * * * * * * * * * * * * * * * * * //

dimensions      [0 3 -1 0 0 0 0];

oriented        oriented;

internalField   nonuniform List<scalar> 
999
(
-4.60387e-19
-4.60646e-19
-4.61515e-19
-4.58226e-19
-4.64749e-19
-4.70299e-19
-4.75542e-19
-4.80253e-19
-4.65489e-19
-4.64749e-19
-4.75444e-19
-4.7193e-19
-4.78866e-19
-4.77244e-19
-4.94776e-19
-4.98243e-19
-5.01157e-19
-5.04753e-19
-5.07307e-19
-5.09717e-19
-5.11774e-19
-5.1333e-19
-5.14473e-19
-5.15282e-19
-5.15826e-19
-5.16158e-19
-5.16325e-19
-5.16363e-19
-5.163e-19
-5.16158e-19
-5.15954e-19
-5.15702e-19
-5.15413e-19
-5.15094e-19
-5.14753e-19
-5.14394e-19
-5.14022e-19
-5.13639e-19
-5.1325e-19
-5.12856e-19
-5.12459e-19
-5.12061e-19
-5.11664e-19
-5.11268e-19
-5.10874e-19
-5.10484e-19
-5.10098e-19
-5.09717e-19
-5.09342e-19
-5.08972e-19
-5.08609e-19
-5.08253e-19
-5.07904e-19
-5.07563e-19
-5.0723e-19
-5.06904e-19
-5.06587e-19
-5.06279e-19
-5.05978e-19
-5.05687e-19
-5.05404e-19
-5.0513e-19
-5.04865e-19
-5.04609e-19
-5.04362e-19
-5.04123e-19
-5.03893e-19
-5.03671e-19
-5.03458e-19
-5.03253e-19
-5.03056e-19
-5.02867e-19
-5.02686e-19
-5.02511e-19
-5.02344e-19
-5.02183e-19
-5.02028e-19
-5.01879e-19
-5.01735e-19
-5.01595e-19
-5.0146e-19
-5.01328e-19
-5.01199e-19
-5.01073e-19
-5.00948e-19
-5.00823e-19
-5.00699e-19
-5.00573e-19
-5.00446e-19
-5.00316e-19
-5.00183e-19
-5.00045e-19
-4.99901e-19
-4.99752e-19
-4.99595e-19
-4.9943e-19
-4.99256e-19
-4.99073e-19
-4.98881e-19
-4.98678e-19
-4.98467e-19
-4.98246e-19
-4.98018e-19
-4.97783e-19
-4.97544e-19
-4.97303e-19
-4.97064e-19
-4.96833e-19
-4.96614e-19
-4.96414e-19
-4.96242e-19
-4.96108e-19
-4.96022e-19
-4.95999e-19
-4.96052e-19
-4.962e-19
-4.96432e-19
-4.96767e-19
-4.97226e-19
-4.97804e-19
-4.9853e-19
-4.99431e-19
-5.00542e-19
-5.01897e-19
-5.0351e-19
-5.05392e-19
-5.07583e-19
-5.10119e-19
-5.13009e-19
-5.16255e-19
-5.19874e-19
-5.23842e-19
-5.28111e-19
-5.32624e-19
-5.37284e-19
-5.4194e-19
-5.46371e-19
-5.49959e-19
-5.52713e-19
-5.61023e-19
-5.8673e-19
-5.93285e-19
-5.91682e-19
-5.91446e-19
-5.92329e-19
-5.91773e-19
-5.97579e-19
-6.01578e-19
-6.0591e-19
-6.09913e-19
-6.13556e-19
-6.16804e-19
-6.19636e-19
-6.22058e-19
-6.24055e-19
-6.25604e-19
-6.26689e-19
-6.27279e-19
-6.27316e-19
-6.26712e-19
-6.25338e-19
-6.23038e-19
-6.19621e-19
-6.14827e-19
-6.0834e-19
-5.99775e-19
-5.8867e-19
-5.7453e-19
-5.5852e-19
-5.36876e-19
-5.2089e-19
-5.88707e-19
-5.67958e-19
-5.42547e-19
-5.2218e-19
-5.03667e-19
-4.88132e-19
-4.75063e-19
-4.64006e-19
-4.54586e-19
-4.46472e-19
-4.39398e-19
-4.33142e-19
-4.27544e-19
-4.22488e-19
-4.1788e-19
-4.13654e-19
-4.09772e-19
-4.06213e-19
-4.0295e-19
-3.99965e-19
-3.97264e-19
-3.94855e-19
-3.92745e-19
-3.90938e-19
-3.89433e-19
-3.88228e-19
-3.87345e-19
-3.86869e-19
-3.86975e-19
-3.89076e-19
-3.9116e-19
-3.88973e-19
-4.60107e-19
-4.57909e-19
-4.59964e-19
-4.62053e-19
-4.62175e-19
-4.61749e-19
-4.60934e-19
-4.59802e-19
-4.58404e-19
-4.56768e-19
-4.54903e-19
-4.52826e-19
-4.50562e-19
-4.48122e-19
-4.45518e-19
-4.42786e-19
-4.3996e-19
-4.37055e-19
-4.3408e-19
-4.31065e-19
-4.28032e-19
-4.24997e-19
-4.21977e-19
-4.18986e-19
-4.16034e-19
-4.13131e-19
-4.10284e-19
-4.07502e-19
-4.04791e-19
-4.02136e-19
-3.99522e-19
-3.96951e-19
-3.94442e-19
-3.92016e-19
-3.89673e-19
-3.87394e-19
-3.85159e-19
-3.82966e-19
-3.80831e-19
-3.7877e-19
-3.76781e-19
-3.74841e-19
-3.72948e-19
-3.7112e-19
-3.69354e-19
-3.67645e-19
-3.65991e-19
-3.64389e-19
-3.62835e-19
-3.61329e-19
-3.59866e-19
-3.58445e-19
-3.57065e-19
-3.55723e-19
-3.54417e-19
-3.53147e-19
-3.5191e-19
-3.50705e-19
-3.49531e-19
-3.48387e-19
-3.47271e-19
-3.46183e-19
-3.45121e-19
-3.44085e-19
-3.43073e-19
-3.42085e-19
-3.4112e-19
-3.40176e-19
-3.39253e-19
-3.38351e-19
-3.37467e-19
-3.36602e-19
-3.35754e-19
-3.34922e-19
-3.34106e-19
-3.33305e-19
-3.32519e-19
-3.31745e-19
-3.30984e-19
-3.30234e-19
-3.29495e-19
-3.28766e-19
-3.28046e-19
-3.27335e-19
-3.26631e-19
-3.25934e-19
-3.25243e-19
-3.24558e-19
-3.23877e-19
-3.232e-19
-3.22527e-19
-3.21856e-19
-3.21187e-19
-3.2052e-19
-3.19853e-19
-3.19187e-19
-3.1852e-19
-3.17852e-19
-3.17183e-19
-3.16512e-19
-3.15838e-19
-3.15162e-19
-3.14482e-19
-3.13798e-19
-3.1311e-19
-3.12417e-19
-3.1172e-19
-3.11017e-19
-3.10308e-19
-3.09593e-19
-3.08872e-19
-3.08145e-19
-3.07411e-19
-3.06669e-19
-3.05921e-19
-3.05165e-19
-3.04401e-19
-3.0363e-19
-3.0285e-19
-3.02063e-19
-3.01267e-19
-3.00463e-19
-2.9965e-19
-2.98829e-19
-2.98e-19
-2.97162e-19
-2.96315e-19
-2.9546e-19
-2.94596e-19
-2.93724e-19
-2.92842e-19
-2.91953e-19
-2.91054e-19
-2.90147e-19
-2.89232e-19
-2.88308e-19
-2.87376e-19
-2.86435e-19
-2.85486e-19
-2.8453e-19
-2.83565e-19
-2.82592e-19
-2.81611e-19
-2.80623e-19
-2.79627e-19
-2.78624e-19
-2.77613e-19
-2.76596e-19
-2.75571e-19
-2.74539e-19
-2.73501e-19
-2.72456e-19
-2.71404e-19
-2.70346e-19
-2.69282e-19
-2.68212e-19
-2.67136e-19
-2.66055e-19
-2.64967e-19
-2.63875e-19
-2.62777e-19
-2.61675e-19
-2.60567e-19
-2.59455e-19
-2.58338e-19
-2.57217e-19
-2.56091e-19
-2.54962e-19
-2.53829e-19
-2.52691e-19
-2.51551e-19
-2.50407e-19
-2.4926e-19
-2.48109e-19
-2.46956e-19
-2.458e-19
-2.44642e-19
-2.43481e-19
-2.42317e-19
-2.41152e-19
-2.39985e-19
-2.38816e-19
-2.37645e-19
-2.36473e-19
-2.35299e-19
-2.34124e-19
-2.32948e-19
-2.31771e-19
-2.30594e-19
-2.29416e-19
-2.28237e-19
-2.27058e-19
-2.25878e-19
-2.24699e-19
-2.2352e-19
-2.2234e-19
-2.21161e-19
-2.19983e-19
-2.18805e-19
-2.17628e-19
-2.16451e-19
-2.15275e-19
-2.14101e-19
-2.12927e-19
-2.11755e-19
-2.10584e-19
-2.09415e-19
-2.08247e-19
-2.07081e-19
-2.05917e-19
-2.04755e-19
-2.03594e-19
-2.02436e-19
-2.0128e-19
-2.00126e-19
-1.98975e-19
-1.97826e-19
-1.96679e-19
-1.95536e-19
-1.94395e-19
-1.93257e-19
-1.92121e-19
-1.90989e-19
-1.8986e-19
-1.88734e-19
-1.87611e-19
-1.86491e-19
-1.85375e-19
-1.84262e-19
-1.83153e-19
-1.82047e-19
-1.80945e-19
-1.79847e-19
-1.78752e-19
-1.77661e-19
-1.76575e-19
-1.75492e-19
-1.74413e-19
-1.73338e-19
-1.72267e-19
-1.712e-19
-1.70137e-19
-1.69079e-19
-1.68025e-19
-1.66975e-19
-1.6593e-19
-1.64889e-19
-1.63853e-19
-1.62821e-19
-1.61793e-19
-1.6077e-19
-1.59752e-19
-1.58738e-19
-1.57729e-19
-1.56725e-19
-1.55725e-19
-1.5473e-19
-1.5374e-19
-1.52755e-19
-1.51774e-19
-1.50799e-19
-1.49828e-19
-1.48861e-19
-1.479e-19
-1.46944e-19
-1.45992e-19
-1.45046e-19
-1.44104e-19
-1.43167e-19
-1.42235e-19
-1.41309e-19
-1.40387e-19
-1.3947e-19
-1.38558e-19
-1.3765e-19
-1.36748e-19
-1.35851e-19
-1.34959e-19
-1.34071e-19
-1.33189e-19
-1.32311e-19
-1.31439e-19
-1.30571e-19
-1.29708e-19
-1.2885e-19
-1.27998e-19
-1.27149e-19
-1.26306e-19
-1.25467e-19
-1.24631e-19
-1.23798e-19
-1.22968e-19
-1.22141e-19
-1.21319e-19
-1.205e-19
-1.19685e-19
-1.18874e-19
-1.18066e-19
-1.17261e-19
-1.1646e-19
-1.15663e-19
-1.1487e-19
-1.1408e-19
-1.13293e-19
-1.12509e-19
-1.11727e-19
-1.1095e-19
-1.10177e-19
-1.09408e-19
-1.08644e-19
-1.07885e-19
-1.0713e-19
-1.0638e-19
-1.05634e-19
-1.04893e-19
-1.04156e-19
-1.03423e-19
-1.02695e-19
-1.01971e-19
-1.01252e-19
-1.00537e-19
-9.98268e-20
-9.91206e-20
-9.84187e-20
-9.77212e-20
-9.70279e-20
-9.63389e-20
-9.56542e-20
-9.49738e-20
-9.42976e-20
-9.36256e-20
-9.29578e-20
-9.22942e-20
-9.16347e-20
-9.09795e-20
-9.03284e-20
-8.96814e-20
-8.90385e-20
-8.83997e-20
-8.7765e-20
-8.71344e-20
-8.65079e-20
-8.58854e-20
-8.52669e-20
-8.46525e-20
-8.4042e-20
-8.34356e-20
-8.28331e-20
-8.22346e-20
-8.164e-20
-8.10494e-20
-8.04627e-20
-7.98798e-20
-7.93009e-20
-7.87259e-20
-7.81547e-20
-7.75873e-20
-7.70238e-20
-7.64641e-20
-7.59083e-20
-7.53562e-20
-7.48078e-20
-7.42633e-20
-7.37224e-20
-7.31853e-20
-7.26519e-20
-7.21223e-20
-7.15962e-20
-7.10739e-20
-7.05552e-20
-7.00401e-20
-6.95287e-20
-6.90209e-20
-6.85166e-20
-6.80159e-20
-6.75188e-20
-6.70252e-20
-6.65351e-20
-6.60485e-20
-6.55654e-20
-6.50858e-20
-6.46096e-20
-6.41368e-20
-6.36675e-20
-6.32016e-20
-6.2739e-20
-6.22798e-20
-6.1824e-20
-6.13714e-20
-6.09222e-20
-6.04763e-20
-6.00336e-20
-5.95942e-20
-5.91581e-20
-5.87251e-20
-5.82953e-20
-5.78688e-20
-5.74453e-20
-5.70251e-20
-5.66079e-20
-5.61939e-20
-5.57829e-20
-5.5375e-20
-5.49701e-20
-5.45683e-20
-5.41695e-20
-5.37737e-20
-5.33808e-20
-5.29909e-20
-5.26039e-20
-5.22199e-20
-5.18387e-20
-5.14604e-20
-5.1085e-20
-5.07124e-20
-5.03426e-20
-4.99757e-20
-4.96115e-20
-4.925e-20
-4.88913e-20
-4.85354e-20
-4.81821e-20
-4.78316e-20
-4.74837e-20
-4.71384e-20
-4.67958e-20
-4.64558e-20
-4.61183e-20
-4.57835e-20
-4.54512e-20
-4.51215e-20
-4.47942e-20
-4.44695e-20
-4.41473e-20
-4.38275e-20
-4.35102e-20
-4.31953e-20
-4.28828e-20
-4.25727e-20
-4.2265e-20
-4.19597e-20
-4.16566e-20
-4.1356e-20
-4.10576e-20
-4.07615e-20
-4.04677e-20
-4.01761e-20
-3.98868e-20
-3.95997e-20
-3.93148e-20
-3.90321e-20
-3.87516e-20
-3.84732e-20
-3.8197e-20
-3.79229e-20
-3.76509e-20
-3.7381e-20
-3.71131e-20
-3.68474e-20
-3.65836e-20
-3.63219e-20
-3.60623e-20
-3.58046e-20
-3.55489e-20
-3.52951e-20
-3.50433e-20
-3.47935e-20
-3.45456e-20
-3.42995e-20
-3.40554e-20
-3.38132e-20
-3.35728e-20
-3.33342e-20
-3.30975e-20
-3.28626e-20
-3.26296e-20
-3.23983e-20
-3.21688e-20
-3.19411e-20
-3.17151e-20
-3.14908e-20
-3.12683e-20
-3.10475e-20
-3.08284e-20
-3.0611e-20
-3.03952e-20
-3.01811e-20
-2.99687e-20
-2.97579e-20
-2.95487e-20
-2.93411e-20
-2.91351e-20
-2.89307e-20
-2.87278e-20
-2.85266e-20
-2.83268e-20
-2.81287e-20
-2.7932e-20
-2.77368e-20
-2.75432e-20
-2.7351e-20
-2.71603e-20
-2.69711e-20
-2.67833e-20
-2.6597e-20
-2.64121e-20
-2.62286e-20
-2.60465e-20
-2.58659e-20
-2.56866e-20
-2.55087e-20
-2.53322e-20
-2.5157e-20
-2.49831e-20
-2.48107e-20
-2.46395e-20
-2.44696e-20
-2.43011e-20
-2.41338e-20
-2.39678e-20
-2.38031e-20
-2.36397e-20
-2.34775e-20
-2.33166e-20
-2.31569e-20
-2.29984e-20
-2.28411e-20
-2.26851e-20
-2.25302e-20
-2.23766e-20
-2.22241e-20
-2.20728e-20
-2.19226e-20
-2.17736e-20
-2.16258e-20
-2.14791e-20
-2.13335e-20
-2.1189e-20
-2.10457e-20
-2.09034e-20
-2.07622e-20
-2.06221e-20
-2.04831e-20
-2.03452e-20
-2.02083e-20
-2.00725e-20
-1.99377e-20
-1.98039e-20
-1.96712e-20
-1.95395e-20
-1.94088e-20
-1.92791e-20
-1.91504e-20
-1.90227e-20
-1.88959e-20
-1.87702e-20
-1.86454e-20
-1.85215e-20
-1.83987e-20
-1.82767e-20
-1.81557e-20
-1.80356e-20
-1.79165e-20
-1.77982e-20
-1.76809e-20
-1.75645e-20
-1.74489e-20
-1.73343e-20
-1.72205e-20
-1.71076e-20
-1.69956e-20
-1.68844e-20
-1.67741e-20
-1.66646e-20
-1.6556e-20
-1.64482e-20
-1.63412e-20
-1.6235e-20
-1.61297e-20
-1.60252e-20
-1.59214e-20
-1.58185e-20
-1.57163e-20
-1.5615e-20
-1.55144e-20
-1.54146e-20
-1.53155e-20
-1.52172e-20
-1.51197e-20
-1.50229e-20
-1.49268e-20
-1.48315e-20
-1.47369e-20
-1.4643e-20
-1.45499e-20
-1.44575e-20
-1.43657e-20
-1.42747e-20
-1.41844e-20
-1.40947e-20
-1.40058e-20
-1.39175e-20
-1.38299e-20
-1.37429e-20
-1.36567e-20
-1.3571e-20
-1.34861e-20
-1.34018e-20
-1.33181e-20
-1.3235e-20
-1.31526e-20
-1.30709e-20
-1.29897e-20
-1.29091e-20
-1.28292e-20
-1.27499e-20
-1.26711e-20
-1.2593e-20
-1.25155e-20
-1.24385e-20
-1.23621e-20
-1.22863e-20
-1.22111e-20
-1.21365e-20
-1.20624e-20
-1.19888e-20
-1.19158e-20
-1.18434e-20
-1.17715e-20
-1.17001e-20
-1.16293e-20
-1.1559e-20
-1.14892e-20
-1.142e-20
-1.13513e-20
-1.1283e-20
-1.12153e-20
-1.11481e-20
-1.10814e-20
-1.10151e-20
-1.09494e-20
-1.08841e-20
-1.08194e-20
-1.07551e-20
-1.06912e-20
-1.06279e-20
-1.0565e-20
-1.05025e-20
-1.04405e-20
-1.0379e-20
-1.03179e-20
-1.02572e-20
-1.0197e-20
-1.01372e-20
-1.00778e-20
-1.00189e-20
-9.96033e-21
-9.90222e-21
-9.84451e-21
-9.78721e-21
-9.73031e-21
-9.67381e-21
-9.61769e-21
-9.56197e-21
-9.50663e-21
-9.45167e-21
-9.39708e-21
-9.34287e-21
-9.28902e-21
-9.23553e-21
-9.1824e-21
-9.12962e-21
-9.07719e-21
-9.02511e-21
-8.97336e-21
-8.92195e-21
-8.87088e-21
-8.82012e-21
-8.76969e-21
-8.71958e-21
-8.66978e-21
-8.62029e-21
-8.5711e-21
-8.52222e-21
-8.47362e-21
-8.42532e-21
-8.3773e-21
-8.32956e-21
-8.2821e-21
-8.23491e-21
-8.18799e-21
-8.14132e-21
-8.09492e-21
-8.04876e-21
-8.00285e-21
-7.95718e-21
-7.91174e-21
-7.86654e-21
-7.82156e-21
-7.7768e-21
-7.73226e-21
-7.68792e-21
-7.64379e-21
-7.59985e-21
-7.55611e-21
-7.51255e-21
-7.46917e-21
-7.42597e-21
-7.38293e-21
-7.34005e-21
-7.29733e-21
-7.25476e-21
-7.21232e-21
-7.17002e-21
-7.12785e-21
-7.0858e-21
-7.04387e-21
-7.00203e-21
-6.9603e-21
-6.91865e-21
-6.87709e-21
-6.8356e-21
-6.79417e-21
-6.7528e-21
-6.71148e-21
-6.67019e-21
-6.62894e-21
-6.5877e-21
-6.54646e-21
-6.50523e-21
-6.46398e-21
-6.42271e-21
-6.38139e-21
-6.34003e-21
-6.29861e-21
-6.25711e-21
-6.21552e-21
-6.17383e-21
-6.13203e-21
-6.09008e-21
-6.04799e-21
-6.00573e-21
-5.96329e-21
-5.92064e-21
-5.87777e-21
-5.83465e-21
-5.79128e-21
-5.74761e-21
-5.70363e-21
-5.65931e-21
-5.61463e-21
-5.56956e-21
-5.52406e-21
-5.47811e-21
-5.43167e-21
-5.38471e-21
-5.33718e-21
-5.28904e-21
-5.24026e-21
-5.19077e-21
-5.14054e-21
-5.0895e-21
-5.03759e-21
-4.98475e-21
-4.93091e-21
-4.87599e-21
-4.8199e-21
-4.76255e-21
-4.70384e-21
-4.64366e-21
-4.58187e-21
-4.51835e-21
-4.45293e-21
-4.38544e-21
-4.31567e-21
-4.24341e-21
-4.1684e-21
-4.09033e-21
-4.00886e-21
-3.9236e-21
-3.83406e-21
-3.73969e-21
-3.63979e-21
-3.53355e-21
-3.41993e-21
-3.29764e-21
-3.16502e-21
-3.01989e-21
-2.85932e-21
-2.67923e-21
-2.47381e-21
-2.23442e-21
-1.94804e-21
-1.5958e-21
-1.15682e-21
-6.26675e-22
)
;

boundaryField
{
    top_wall
    {
        type            calculated;
        value           uniform 0;
    }
    inlet
    {
        type            cyclic;
        value           nonuniform List<scalar> 
1000
(
-1.1524e-05
-3.08965e-05
-4.73367e-05
-6.04883e-05
-7.10279e-05
-7.97037e-05
-8.70484e-05
-9.34129e-05
-9.90311e-05
-0.000104064
-0.000108625
-0.000112799
-0.00011665
-0.000120225
-0.000123564
-0.000126697
-0.00012965
-0.000132443
-0.000135094
-0.000137617
-0.000140024
-0.000142327
-0.000144534
-0.000146654
-0.000148693
-0.000150658
-0.000152555
-0.000154388
-0.000156161
-0.00015788
-0.000159546
-0.000161164
-0.000162736
-0.000164265
-0.000165754
-0.000167205
-0.000168619
-0.000169999
-0.000171346
-0.000172662
-0.000173949
-0.000175207
-0.000176439
-0.000177645
-0.000178827
-0.000179985
-0.000181121
-0.000182235
-0.000183328
-0.000184402
-0.000185456
-0.000186492
-0.000187511
-0.000188512
-0.000189497
-0.000190466
-0.00019142
-0.000192359
-0.000193283
-0.000194194
-0.000195092
-0.000195976
-0.000196848
-0.000197708
-0.000198556
-0.000199392
-0.000200218
-0.000201032
-0.000201836
-0.00020263
-0.000203414
-0.000204189
-0.000204954
-0.00020571
-0.000206457
-0.000207195
-0.000207925
-0.000208647
-0.000209361
-0.000210067
-0.000210765
-0.000211456
-0.00021214
-0.000212817
-0.000213486
-0.000214149
-0.000214805
-0.000215455
-0.000216099
-0.000216736
-0.000217368
-0.000217993
-0.000218613
-0.000219227
-0.000219836
-0.000220439
-0.000221036
-0.000221629
-0.000222217
-0.000222799
-0.000223377
-0.00022395
-0.000224518
-0.000225081
-0.00022564
-0.000226195
-0.000226745
-0.000227291
-0.000227833
-0.00022837
-0.000228904
-0.000229434
-0.000229959
-0.000230481
-0.000230999
-0.000231514
-0.000232025
-0.000232532
-0.000233035
-0.000233536
-0.000234033
-0.000234526
-0.000235016
-0.000235503
-0.000235987
-0.000236468
-0.000236946
-0.00023742
-0.000237892
-0.000238361
-0.000238826
-0.000239289
-0.00023975
-0.000240207
-0.000240662
-0.000241114
-0.000241563
-0.00024201
-0.000242454
-0.000242896
-0.000243335
-0.000243772
-0.000244206
-0.000244638
-0.000245068
-0.000245495
-0.00024592
-0.000246343
-0.000246764
-0.000247182
-0.000247598
-0.000248012
-0.000248424
-0.000248834
-0.000249242
-0.000249648
-0.000250052
-0.000250453
-0.000250853
-0.000251251
-0.000251647
-0.000252041
-0.000252434
-0.000252824
-0.000253213
-0.0002536
-0.000253985
-0.000254369
-0.00025475
-0.00025513
-0.000255509
-0.000255885
-0.00025626
-0.000256634
-0.000257005
-0.000257375
-0.000257744
-0.000258111
-0.000258477
-0.000258841
-0.000259203
-0.000259564
-0.000259924
-0.000260282
-0.000260638
-0.000260993
-0.000261347
-0.0002617
-0.000262051
-0.0002624
-0.000262748
-0.000263095
-0.000263441
-0.000263785
-0.000264128
-0.00026447
-0.00026481
-0.000265149
-0.000265487
-0.000265824
-0.000266159
-0.000266494
-0.000266827
-0.000267158
-0.000267489
-0.000267818
-0.000268147
-0.000268474
-0.0002688
-0.000269124
-0.000269448
-0.000269771
-0.000270092
-0.000270412
-0.000270731
-0.00027105
-0.000271367
-0.000271683
-0.000271998
-0.000272312
-0.000272624
-0.000272936
-0.000273247
-0.000273557
-0.000273866
-0.000274173
-0.00027448
-0.000274786
-0.000275091
-0.000275394
-0.000275697
-0.000275999
-0.0002763
-0.0002766
-0.000276899
-0.000277197
-0.000277494
-0.00027779
-0.000278085
-0.00027838
-0.000278673
-0.000278966
-0.000279257
-0.000279548
-0.000279838
-0.000280127
-0.000280415
-0.000280702
-0.000280988
-0.000281273
-0.000281558
-0.000281842
-0.000282124
-0.000282406
-0.000282687
-0.000282968
-0.000283247
-0.000283526
-0.000283803
-0.00028408
-0.000284356
-0.000284632
-0.000284906
-0.00028518
-0.000285452
-0.000285724
-0.000285995
-0.000286266
-0.000286535
-0.000286804
-0.000287072
-0.000287339
-0.000287605
-0.000287871
-0.000288136
-0.0002884
-0.000288663
-0.000288925
-0.000289187
-0.000289447
-0.000289707
-0.000289967
-0.000290225
-0.000290483
-0.000290739
-0.000290996
-0.000291251
-0.000291505
-0.000291759
-0.000292012
-0.000292264
-0.000292516
-0.000292766
-0.000293016
-0.000293265
-0.000293514
-0.000293761
-0.000294008
-0.000294254
-0.000294499
-0.000294744
-0.000294988
-0.000295231
-0.000295473
-0.000295714
-0.000295955
-0.000296195
-0.000296434
-0.000296672
-0.00029691
-0.000297146
-0.000297382
-0.000297618
-0.000297852
-0.000298086
-0.000298319
-0.000298551
-0.000298782
-0.000299013
-0.000299242
-0.000299471
-0.0002997
-0.000299927
-0.000300153
-0.000300379
-0.000300604
-0.000300829
-0.000301052
-0.000301275
-0.000301496
-0.000301717
-0.000301938
-0.000302157
-0.000302375
-0.000302593
-0.00030281
-0.000303026
-0.000303241
-0.000303456
-0.00030367
-0.000303882
-0.000304094
-0.000304305
-0.000304516
-0.000304725
-0.000304934
-0.000305141
-0.000305348
-0.000305554
-0.000305759
-0.000305964
-0.000306167
-0.000306369
-0.000306571
-0.000306772
-0.000306972
-0.00030717
-0.000307369
-0.000307566
-0.000307762
-0.000307957
-0.000308152
-0.000308345
-0.000308538
-0.000308729
-0.00030892
-0.000309109
-0.000309298
-0.000309486
-0.000309673
-0.000309859
-0.000310044
-0.000310228
-0.00031041
-0.000310592
-0.000310773
-0.000310953
-0.000311132
-0.00031131
-0.000311487
-0.000311663
-0.000311838
-0.000312011
-0.000312184
-0.000312356
-0.000312526
-0.000312696
-0.000312864
-0.000313032
-0.000313198
-0.000313363
-0.000313527
-0.00031369
-0.000313852
-0.000314012
-0.000314172
-0.00031433
-0.000314488
-0.000314644
-0.000314798
-0.000314952
-0.000315105
-0.000315256
-0.000315406
-0.000315555
-0.000315703
-0.000315849
-0.000315995
-0.000316139
-0.000316281
-0.000316423
-0.000316563
-0.000316702
-0.00031684
-0.000316976
-0.000317111
-0.000317245
-0.000317377
-0.000317508
-0.000317638
-0.000317766
-0.000317894
-0.000318019
-0.000318144
-0.000318267
-0.000318388
-0.000318508
-0.000318627
-0.000318744
-0.00031886
-0.000318975
-0.000319088
-0.000319199
-0.00031931
-0.000319418
-0.000319525
-0.000319631
-0.000319735
-0.000319838
-0.000319939
-0.000320039
-0.000320137
-0.000320234
-0.000320329
-0.000320423
-0.000320515
-0.000320606
-0.000320695
-0.000320782
-0.000320868
-0.000320952
-0.000321035
-0.000321116
-0.000321195
-0.000321273
-0.00032135
-0.000321424
-0.000321497
-0.000321569
-0.000321638
-0.000321707
-0.000321773
-0.000321838
-0.000321901
-0.000321963
-0.000322023
-0.000322081
-0.000322137
-0.000322192
-0.000322245
-0.000322297
-0.000322347
-0.000322395
-0.000322441
-0.000322486
-0.000322529
-0.000322571
-0.00032261
-0.000322648
-0.000322684
-0.000322719
-0.000322752
-0.000322783
-0.000322812
-0.00032284
-0.000322866
-0.00032289
-0.000322913
-0.000322933
-0.000322952
-0.00032297
-0.000322985
-0.000322999
-0.000323011
-0.000323022
-0.00032303
-0.000323037
-0.000323043
-0.000323046
-0.000323048
-0.000323048
-0.000323046
-0.000323043
-0.000323037
-0.00032303
-0.000323022
-0.000323011
-0.000322999
-0.000322985
-0.00032297
-0.000322952
-0.000322933
-0.000322913
-0.00032289
-0.000322866
-0.00032284
-0.000322812
-0.000322783
-0.000322752
-0.000322719
-0.000322684
-0.000322648
-0.00032261
-0.000322571
-0.000322529
-0.000322486
-0.000322441
-0.000322395
-0.000322347
-0.000322297
-0.000322245
-0.000322192
-0.000322137
-0.000322081
-0.000322023
-0.000321963
-0.000321901
-0.000321838
-0.000321773
-0.000321707
-0.000321638
-0.000321569
-0.000321497
-0.000321424
-0.00032135
-0.000321273
-0.000321195
-0.000321116
-0.000321035
-0.000320952
-0.000320868
-0.000320782
-0.000320695
-0.000320606
-0.000320515
-0.000320423
-0.000320329
-0.000320234
-0.000320137
-0.000320039
-0.000319939
-0.000319838
-0.000319735
-0.000319631
-0.000319525
-0.000319418
-0.00031931
-0.000319199
-0.000319088
-0.000318975
-0.00031886
-0.000318744
-0.000318627
-0.000318508
-0.000318388
-0.000318267
-0.000318144
-0.000318019
-0.000317894
-0.000317767
-0.000317638
-0.000317508
-0.000317377
-0.000317245
-0.000317111
-0.000316976
-0.00031684
-0.000316702
-0.000316563
-0.000316423
-0.000316281
-0.000316139
-0.000315995
-0.000315849
-0.000315703
-0.000315555
-0.000315406
-0.000315256
-0.000315105
-0.000314952
-0.000314798
-0.000314644
-0.000314488
-0.00031433
-0.000314172
-0.000314012
-0.000313852
-0.00031369
-0.000313527
-0.000313363
-0.000313198
-0.000313032
-0.000312864
-0.000312696
-0.000312526
-0.000312356
-0.000312184
-0.000312011
-0.000311838
-0.000311663
-0.000311487
-0.00031131
-0.000311132
-0.000310953
-0.000310773
-0.000310592
-0.00031041
-0.000310228
-0.000310044
-0.000309859
-0.000309673
-0.000309486
-0.000309298
-0.000309109
-0.00030892
-0.000308729
-0.000308538
-0.000308345
-0.000308152
-0.000307957
-0.000307762
-0.000307566
-0.000307369
-0.000307171
-0.000306972
-0.000306772
-0.000306571
-0.000306369
-0.000306167
-0.000305964
-0.000305759
-0.000305554
-0.000305348
-0.000305141
-0.000304934
-0.000304725
-0.000304516
-0.000304305
-0.000304094
-0.000303882
-0.00030367
-0.000303456
-0.000303242
-0.000303026
-0.00030281
-0.000302593
-0.000302375
-0.000302157
-0.000301938
-0.000301717
-0.000301496
-0.000301275
-0.000301052
-0.000300829
-0.000300604
-0.000300379
-0.000300154
-0.000299927
-0.0002997
-0.000299471
-0.000299242
-0.000299013
-0.000298782
-0.000298551
-0.000298319
-0.000298086
-0.000297852
-0.000297618
-0.000297382
-0.000297146
-0.00029691
-0.000296672
-0.000296434
-0.000296195
-0.000295955
-0.000295714
-0.000295473
-0.000295231
-0.000294988
-0.000294744
-0.000294499
-0.000294254
-0.000294008
-0.000293761
-0.000293514
-0.000293265
-0.000293016
-0.000292766
-0.000292516
-0.000292264
-0.000292012
-0.000291759
-0.000291505
-0.000291251
-0.000290996
-0.000290739
-0.000290483
-0.000290225
-0.000289967
-0.000289707
-0.000289447
-0.000289187
-0.000288925
-0.000288663
-0.0002884
-0.000288136
-0.000287871
-0.000287605
-0.000287339
-0.000287072
-0.000286804
-0.000286535
-0.000286266
-0.000285995
-0.000285724
-0.000285452
-0.00028518
-0.000284906
-0.000284632
-0.000284356
-0.00028408
-0.000283803
-0.000283526
-0.000283247
-0.000282968
-0.000282687
-0.000282406
-0.000282124
-0.000281842
-0.000281558
-0.000281273
-0.000280988
-0.000280702
-0.000280415
-0.000280127
-0.000279838
-0.000279548
-0.000279257
-0.000278966
-0.000278673
-0.00027838
-0.000278085
-0.00027779
-0.000277494
-0.000277197
-0.000276899
-0.0002766
-0.0002763
-0.000275999
-0.000275697
-0.000275394
-0.000275091
-0.000274786
-0.00027448
-0.000274173
-0.000273866
-0.000273557
-0.000273247
-0.000272936
-0.000272624
-0.000272312
-0.000271998
-0.000271683
-0.000271367
-0.00027105
-0.000270731
-0.000270412
-0.000270092
-0.00026977
-0.000269448
-0.000269124
-0.0002688
-0.000268474
-0.000268146
-0.000267818
-0.000267489
-0.000267158
-0.000266826
-0.000266494
-0.000266159
-0.000265824
-0.000265487
-0.000265149
-0.00026481
-0.00026447
-0.000264128
-0.000263785
-0.000263441
-0.000263095
-0.000262748
-0.0002624
-0.000262051
-0.0002617
-0.000261347
-0.000260993
-0.000260638
-0.000260282
-0.000259924
-0.000259564
-0.000259203
-0.000258841
-0.000258477
-0.000258111
-0.000257744
-0.000257375
-0.000257005
-0.000256633
-0.00025626
-0.000255885
-0.000255508
-0.00025513
-0.00025475
-0.000254369
-0.000253985
-0.0002536
-0.000253213
-0.000252824
-0.000252434
-0.000252041
-0.000251647
-0.000251251
-0.000250853
-0.000250453
-0.000250051
-0.000249648
-0.000249242
-0.000248834
-0.000248424
-0.000248012
-0.000247598
-0.000247182
-0.000246764
-0.000246343
-0.00024592
-0.000245495
-0.000245068
-0.000244638
-0.000244206
-0.000243772
-0.000243335
-0.000242896
-0.000242454
-0.00024201
-0.000241563
-0.000241114
-0.000240662
-0.000240207
-0.00023975
-0.000239289
-0.000238826
-0.000238361
-0.000237892
-0.00023742
-0.000236946
-0.000236468
-0.000235987
-0.000235503
-0.000235016
-0.000234526
-0.000234033
-0.000233536
-0.000233035
-0.000232532
-0.000232025
-0.000231514
-0.000230999
-0.000230481
-0.000229959
-0.000229434
-0.000228904
-0.00022837
-0.000227833
-0.000227291
-0.000226745
-0.000226195
-0.00022564
-0.000225081
-0.000224518
-0.00022395
-0.000223377
-0.000222799
-0.000222217
-0.000221629
-0.000221036
-0.000220439
-0.000219836
-0.000219227
-0.000218613
-0.000217993
-0.000217368
-0.000216736
-0.000216099
-0.000215455
-0.000214805
-0.000214149
-0.000213486
-0.000212816
-0.00021214
-0.000211456
-0.000210765
-0.000210067
-0.000209361
-0.000208647
-0.000207925
-0.000207195
-0.000206457
-0.00020571
-0.000204954
-0.000204189
-0.000203414
-0.00020263
-0.000201836
-0.000201032
-0.000200218
-0.000199392
-0.000198556
-0.000197708
-0.000196848
-0.000195976
-0.000195092
-0.000194194
-0.000193283
-0.000192359
-0.00019142
-0.000190466
-0.000189497
-0.000188512
-0.000187511
-0.000186492
-0.000185456
-0.000184402
-0.000183328
-0.000182235
-0.000181121
-0.000179985
-0.000178827
-0.000177645
-0.000176439
-0.000175207
-0.000173949
-0.000172662
-0.000171346
-0.000169999
-0.000168619
-0.000167205
-0.000165754
-0.000164265
-0.000162736
-0.000161164
-0.000159546
-0.00015788
-0.000156161
-0.000154388
-0.000152555
-0.000150658
-0.000148693
-0.000146653
-0.000144534
-0.000142327
-0.000140024
-0.000137617
-0.000135094
-0.000132443
-0.00012965
-0.000126697
-0.000123564
-0.000120225
-0.00011665
-0.000112799
-0.000108625
-0.000104064
-9.90311e-05
-9.34129e-05
-8.70484e-05
-7.97037e-05
-7.10279e-05
-6.04883e-05
-4.73367e-05
-3.08965e-05
-1.1524e-05
)
;
    }
    bot_wall
    {
        type            calculated;
        value           uniform 0;
    }
    outlet
    {
        type            cyclic;
        value           nonuniform List<scalar> 
1000
(
1.1524e-05
3.08965e-05
4.73367e-05
6.04883e-05
7.10279e-05
7.97037e-05
8.70484e-05
9.34129e-05
9.90311e-05
0.000104064
0.000108625
0.000112799
0.00011665
0.000120225
0.000123564
0.000126697
0.00012965
0.000132443
0.000135094
0.000137617
0.000140024
0.000142327
0.000144534
0.000146654
0.000148693
0.000150658
0.000152555
0.000154388
0.000156161
0.00015788
0.000159546
0.000161164
0.000162736
0.000164265
0.000165754
0.000167205
0.000168619
0.000169999
0.000171346
0.000172662
0.000173949
0.000175207
0.000176439
0.000177645
0.000178827
0.000179985
0.000181121
0.000182235
0.000183328
0.000184402
0.000185456
0.000186492
0.000187511
0.000188512
0.000189497
0.000190466
0.00019142
0.000192359
0.000193283
0.000194194
0.000195092
0.000195976
0.000196848
0.000197708
0.000198556
0.000199392
0.000200218
0.000201032
0.000201836
0.00020263
0.000203414
0.000204189
0.000204954
0.00020571
0.000206457
0.000207195
0.000207925
0.000208647
0.000209361
0.000210067
0.000210765
0.000211456
0.00021214
0.000212817
0.000213486
0.000214149
0.000214805
0.000215455
0.000216099
0.000216736
0.000217368
0.000217993
0.000218613
0.000219227
0.000219836
0.000220439
0.000221036
0.000221629
0.000222217
0.000222799
0.000223377
0.00022395
0.000224518
0.000225081
0.00022564
0.000226195
0.000226745
0.000227291
0.000227833
0.00022837
0.000228904
0.000229434
0.000229959
0.000230481
0.000230999
0.000231514
0.000232025
0.000232532
0.000233035
0.000233536
0.000234033
0.000234526
0.000235016
0.000235503
0.000235987
0.000236468
0.000236946
0.00023742
0.000237892
0.000238361
0.000238826
0.000239289
0.00023975
0.000240207
0.000240662
0.000241114
0.000241563
0.00024201
0.000242454
0.000242896
0.000243335
0.000243772
0.000244206
0.000244638
0.000245068
0.000245495
0.00024592
0.000246343
0.000246764
0.000247182
0.000247598
0.000248012
0.000248424
0.000248834
0.000249242
0.000249648
0.000250052
0.000250453
0.000250853
0.000251251
0.000251647
0.000252041
0.000252434
0.000252824
0.000253213
0.0002536
0.000253985
0.000254369
0.00025475
0.00025513
0.000255509
0.000255885
0.00025626
0.000256634
0.000257005
0.000257375
0.000257744
0.000258111
0.000258477
0.000258841
0.000259203
0.000259564
0.000259924
0.000260282
0.000260638
0.000260993
0.000261347
0.0002617
0.000262051
0.0002624
0.000262748
0.000263095
0.000263441
0.000263785
0.000264128
0.00026447
0.00026481
0.000265149
0.000265487
0.000265824
0.000266159
0.000266494
0.000266827
0.000267158
0.000267489
0.000267818
0.000268147
0.000268474
0.0002688
0.000269124
0.000269448
0.000269771
0.000270092
0.000270412
0.000270731
0.00027105
0.000271367
0.000271683
0.000271998
0.000272312
0.000272624
0.000272936
0.000273247
0.000273557
0.000273866
0.000274173
0.00027448
0.000274786
0.000275091
0.000275394
0.000275697
0.000275999
0.0002763
0.0002766
0.000276899
0.000277197
0.000277494
0.00027779
0.000278085
0.00027838
0.000278673
0.000278966
0.000279257