/*--------------------------------*- C++ -*----------------------------------*\
| =========                 |                                                 |
| \\      /  F ield         | OpenFOAM: The Open Source CFD Toolbox           |
|  \\    /   O peration     | Version:  2406                                  |
|   \\  /    A nd           | Website:  www.openfoam.com                      |
|    \\/     M anipulation  |                                                 |
\*---------------------------------------------------------------------------*/
FoamFile
{
    version     2.0;
    format      ascii;
    arch        "LSB;label=32;scalar=64";
    class       volVectorField;
    location    "22.66";
    object      U;
}
// * * * * * * * * * * * * * * * * * * * * * * * * * * * * * * * * * * * * * //

dimensions      [0 1 -1 0 0 0 0];

internalField   nonuniform List<vector> 
1000
(
(0.11524 -2.89449e-18 0)
(0.308965 -4.64861e-18 0)
(0.473367 -4.85734e-18 0)
(0.604883 -4.65004e-18 0)
(0.710279 -4.61903e-18 0)
(0.797037 -4.68597e-18 0)
(0.870484 -4.75457e-18 0)
(0.934129 -4.76784e-18 0)
(0.990311 -4.73131e-18 0)
(1.04064 -4.66967e-18 0)
(1.08625 -4.6849e-18 0)
(1.12799 -4.74892e-18 0)
(1.1665 -4.74445e-18 0)
(1.20225 -4.78203e-18 0)
(1.23564 -4.8687e-18 0)
(1.26697 -4.94989e-18 0)
(1.2965 -5.00961e-18 0)
(1.32443 -5.03544e-18 0)
(1.35094 -5.06152e-18 0)
(1.37617 -5.08632e-18 0)
(1.40024 -5.10955e-18 0)
(1.42327 -5.12732e-18 0)
(1.44534 -5.14054e-18 0)
(1.46654 -5.15007e-18 0)
(1.48693 -5.15663e-18 0)
(1.50658 -5.16085e-18 0)
(1.52555 -5.16321e-18 0)
(1.54388 -5.16412e-18 0)
(1.56161 -5.16391e-18 0)
(1.5788 -5.16281e-18 0)
(1.59546 -5.16102e-18 0)
(1.61164 -5.15869e-18 0)
(1.62736 -5.15594e-18 0)
(1.64265 -5.15287e-18 0)
(1.65754 -5.14954e-18 0)
(1.67205 -5.14601e-18 0)
(1.68619 -5.14233e-18 0)
(1.69999 -5.13854e-18 0)
(1.71346 -5.13466e-18 0)
(1.72662 -5.13073e-18 0)
(1.73949 -5.12676e-18 0)
(1.75207 -5.12278e-18 0)
(1.76439 -5.11879e-18 0)
(1.77645 -5.11481e-18 0)
(1.78827 -5.11085e-18 0)
(1.79985 -5.10692e-18 0)
(1.81121 -5.10304e-18 0)
(1.82235 -5.09919e-18 0)
(1.83328 -5.09541e-18 0)
(1.84402 -5.09167e-18 0)
(1.85456 -5.08801e-18 0)
(1.86492 -5.08441e-18 0)
(1.87511 -5.08088e-18 0)
(1.88512 -5.07742e-18 0)
(1.89497 -5.07404e-18 0)
(1.90466 -5.07075e-18 0)
(1.9142 -5.06753e-18 0)
(1.92359 -5.0644e-18 0)
(1.93283 -5.06135e-18 0)
(1.94194 -5.05839e-18 0)
(1.95092 -5.05552e-18 0)
(1.95976 -5.05273e-18 0)
(1.96848 -5.05003e-18 0)
(1.97708 -5.04742e-18 0)
(1.98556 -5.0449e-18 0)
(1.99392 -5.04247e-18 0)
(2.00218 -5.04013e-18 0)
(2.01032 -5.03787e-18 0)
(2.01836 -5.03569e-18 0)
(2.0263 -5.0336e-18 0)
(2.03414 -5.03159e-18 0)
(2.04189 -5.02966e-18 0)
(2.04954 -5.0278e-18 0)
(2.0571 -5.02602e-18 0)
(2.06457 -5.02431e-18 0)
(2.07195 -5.02267e-18 0)
(2.07925 -5.02109e-18 0)
(2.08647 -5.01957e-18 0)
(2.09361 -5.0181e-18 0)
(2.10067 -5.01669e-18 0)
(2.10765 -5.01531e-18 0)
(2.11456 -5.01398e-18 0)
(2.1214 -5.01268e-18 0)
(2.12817 -5.0114e-18 0)
(2.13486 -5.01014e-18 0)
(2.14149 -5.0089e-18 0)
(2.14805 -5.00765e-18 0)
(2.15455 -5.0064e-18 0)
(2.16099 -5.00514e-18 0)
(2.16736 -5.00386e-18 0)
(2.17368 -5.00254e-18 0)
(2.17993 -5.00119e-18 0)
(2.18613 -4.99978e-18 0)
(2.19227 -4.99832e-18 0)
(2.19836 -4.99679e-18 0)
(2.20439 -4.99518e-18 0)
(2.21036 -4.99348e-18 0)
(2.21629 -4.9917e-18 0)
(2.22217 -4.98982e-18 0)
(2.22799 -4.98785e-18 0)
(2.23377 -4.98578e-18 0)
(2.2395 -4.98362e-18 0)
(2.24518 -4.98137e-18 0)
(2.25081 -4.97905e-18 0)
(2.2564 -4.97667e-18 0)
(2.26195 -4.97426e-18 0)
(2.26745 -4.97185e-18 0)
(2.27291 -4.96949e-18 0)
(2.27833 -4.96722e-18 0)
(2.2837 -4.96511e-18 0)
(2.28904 -4.96323e-18 0)
(2.29434 -4.96167e-18 0)
(2.29959 -4.96054e-18 0)
(2.30481 -4.95996e-18 0)
(2.30999 -4.96006e-18 0)
(2.31514 -4.96103e-18 0)
(2.32025 -4.96302e-18 0)
(2.32532 -4.96567e-18 0)
(2.33035 -4.96972e-18 0)
(2.33536 -4.97484e-18 0)
(2.34033 -4.98129e-18 0)
(2.34526 -4.98935e-18 0)
(2.35016 -4.99932e-18 0)
(2.35503 -5.01156e-18 0)
(2.35987 -5.02643e-18 0)
(2.36468 -5.04381e-18 0)
(2.36946 -5.06408e-18 0)
(2.3742 -5.08762e-18 0)
(2.37892 -5.1148e-18 0)
(2.38361 -5.14542e-18 0)
(2.38826 -5.17971e-18 0)
(2.39289 -5.21781e-18 0)
(2.3975 -5.25908e-18 0)
(2.40207 -5.30317e-18 0)
(2.40662 -5.34934e-18 0)
(2.41114 -5.39637e-18 0)
(2.41563 -5.44245e-18 0)
(2.4201 -5.485e-18 0)
(2.42454 -5.52102e-18 0)
(2.42896 -5.54689e-18 0)
(2.43335 -5.74152e-18 0)
(2.43772 -5.92561e-18 0)
(2.44206 -5.91981e-18 0)
(2.44638 -5.91385e-18 0)
(2.45068 -5.91509e-18 0)
(2.45495 -5.91792e-18 0)
(2.4592 -5.94469e-18 0)
(2.46343 -5.99337e-18 0)
(2.46764 -6.03821e-18 0)
(2.47182 -6.08e-18 0)
(2.47598 -6.11828e-18 0)
(2.48012 -6.15287e-18 0)
(2.48424 -6.18325e-18 0)
(2.48834 -6.20949e-18 0)
(2.49242 -6.2317e-18 0)
(2.49648 -6.24944e-18 0)
(2.50052 -6.26266e-18 0)
(2.50453 -6.27114e-18 0)
(2.50853 -6.27445e-18 0)
(2.51251 -6.27189e-18 0)
(2.51647 -6.26238e-18 0)
(2.52041 -6.2444e-18 0)
(2.52434 -6.21637e-18 0)
(2.52824 -6.17606e-18 0)
(2.53213 -6.1205e-18 0)
(2.536 -6.04632e-18 0)
(2.53985 -5.9492e-18 0)
(2.54369 -5.82423e-18 0)
(2.5475 -5.6664e-18 0)
(2.5513 -5.46327e-18 0)
(2.55509 -5.28774e-18 0)
(2.55885 -5.55077e-18 0)
(2.5626 -5.78994e-18 0)
(2.56634 -5.56914e-18 0)
(2.57005 -5.32247e-18 0)
(2.57375 -5.12115e-18 0)
(2.57744 -4.9522e-18 0)
(2.58111 -4.81045e-18 0)
(2.58477 -4.69082e-18 0)
(2.58841 -4.58931e-18 0)
(2.59203 -4.50241e-18 0)
(2.59564 -4.42705e-18 0)
(2.59924 -4.36092e-18 0)
(2.60282 -4.30193e-18 0)
(2.60638 -4.24895e-18 0)
(2.60993 -4.20083e-18 0)
(2.61347 -4.15678e-18 0)
(2.617 -4.11631e-18 0)
(2.62051 -4.07914e-18 0)
(2.624 -4.04514e-18 0)
(2.62748 -4.01388e-18 0)
(2.63095 -3.98542e-18 0)
(2.63441 -3.95986e-18 0)
(2.63785 -3.93726e-18 0)
(2.64128 -3.91766e-18 0)
(2.6447 -3.90111e-18 0)
(2.6481 -3.88756e-18 0)
(2.65149 -3.877e-18 0)
(2.65487 -3.8699e-18 0)
(2.65824 -3.86749e-18 0)
(2.66159 -3.87203e-18 0)
(2.66494 -3.88234e-18 0)
(2.66827 -3.94083e-18 0)
(2.67158 -4.2456e-18 0)
(2.67489 -4.55e-18 0)
(2.67818 -4.60815e-18 0)
(2.68147 -4.61825e-18 0)
(2.68474 -4.6228e-18 0)
(2.688 -4.6207e-18 0)
(2.69124 -4.61428e-18 0)
(2.69448 -4.6044e-18 0)
(2.69771 -4.59164e-18 0)
(2.70092 -4.57645e-18 0)
(2.70412 -4.55891e-18 0)
(2.70731 -4.53915e-18 0)
(2.7105 -4.51737e-18 0)
(2.71367 -4.49388e-18 0)
(2.71683 -4.46857e-18 0)
(2.71998 -4.4418e-18 0)
(2.72312 -4.41392e-18 0)
(2.72624 -4.38528e-18 0)
(2.72936 -4.35581e-18 0)
(2.73247 -4.3258e-18 0)
(2.73557 -4.29551e-18 0)
(2.73866 -4.26512e-18 0)
(2.74173 -4.23482e-18 0)
(2.7448 -4.20473e-18 0)
(2.74786 -4.17499e-18 0)
(2.75091 -4.14569e-18 0)
(2.75394 -4.11692e-18 0)
(2.75697 -4.08876e-18 0)
(2.75999 -4.06128e-18 0)
(2.763 -4.03454e-18 0)
(2.766 -4.00818e-18 0)
(2.76899 -3.98226e-18 0)
(2.77197 -3.95676e-18 0)
(2.77494 -3.93208e-18 0)
(2.7779 -3.90824e-18 0)
(2.78085 -3.88522e-18 0)
(2.7838 -3.86265e-18 0)
(2.78673 -3.84052e-18 0)
(2.78966 -3.8188e-18 0)
(2.79257 -3.79783e-18 0)
(2.79548 -3.77758e-18 0)
(2.79838 -3.75804e-18 0)
(2.80127 -3.73878e-18 0)
(2.80415 -3.72019e-18 0)
(2.80702 -3.70222e-18 0)
(2.80988 -3.68485e-18 0)
(2.81273 -3.66805e-18 0)
(2.81558 -3.65177e-18 0)
(2.81842 -3.636e-18 0)
(2.82124 -3.62071e-18 0)
(2.82406 -3.60586e-18 0)
(2.82687 -3.59145e-18 0)
(2.82968 -3.57746e-18 0)
(2.83247 -3.56385e-18 0)
(2.83526 -3.55061e-18 0)
(2.83803 -3.53774e-18 0)
(2.8408 -3.5252e-18 0)
(2.84356 -3.51299e-18 0)
(2.84632 -3.5011e-18 0)
(2.84906 -3.48951e-18 0)
(2.8518 -3.47822e-18 0)
(2.85452 -3.4672e-18 0)
(2.85724 -3.45646e-18 0)
(2.85995 -3.44597e-18 0)
(2.86266 -3.43573e-18 0)
(2.86535 -3.42574e-18 0)
(2.86804 -3.41597e-18 0)
(2.87072 -3.40643e-18 0)
(2.87339 -3.3971e-18 0)
(2.87605 -3.38797e-18 0)
(2.87871 -3.37904e-18 0)
(2.88136 -3.3703e-18 0)
(2.884 -3.36173e-18 0)
(2.88663 -3.35334e-18 0)
(2.88925 -3.3451e-18 0)
(2.89187 -3.33702e-18 0)
(2.89447 -3.32909e-18 0)
(2.89707 -3.32129e-18 0)
(2.89967 -3.31361e-18 0)
(2.90225 -3.30606e-18 0)
(2.90483 -3.29862e-18 0)
(2.90739 -3.29128e-18 0)
(2.90996 -3.28404e-18 0)
(2.91251 -3.27688e-18 0)
(2.91505 -3.26981e-18 0)
(2.91759 -3.26281e-18 0)
(2.92012 -3.25587e-18 0)
(2.92264 -3.24899e-18 0)
(2.92516 -3.24216e-18 0)
(2.92766 -3.23538e-18 0)
(2.93016 -3.22863e-18 0)
(2.93265 -3.22191e-18 0)
(2.93514 -3.21521e-18 0)
(2.93761 -3.20853e-18 0)
(2.94008 -3.20186e-18 0)
(2.94254 -3.1952e-18 0)
(2.94499 -3.18854e-18 0)
(2.94744 -3.18186e-18 0)
(2.94988 -3.17518e-18 0)
(2.95231 -3.16848e-18 0)
(2.95473 -3.16176e-18 0)
(2.95714 -3.15501e-18 0)
(2.95955 -3.14823e-18 0)
(2.96195 -3.14141e-18 0)
(2.96434 -3.13455e-18 0)
(2.96672 -3.12765e-18 0)
(2.9691 -3.1207e-18 0)
(2.97146 -3.11369e-18 0)
(2.97382 -3.10664e-18 0)
(2.97618 -3.09952e-18 0)
(2.97852 -3.09234e-18 0)
(2.98086 -3.0851e-18 0)
(2.98319 -3.07779e-18 0)
(2.98551 -3.07042e-18 0)
(2.98782 -3.06297e-18 0)
(2.99013 -3.05545e-18 0)
(2.99242 -3.04785e-18 0)
(2.99471 -3.04017e-18 0)
(2.997 -3.03242e-18 0)
(2.99927 -3.02458e-18 0)
(3.00153 -3.01667e-18 0)
(3.00379 -3.00867e-18 0)
(3.00604 -3.00059e-18 0)
(3.00829 -2.99242e-18 0)
(3.01052 -2.98417e-18 0)
(3.01275 -2.97583e-18 0)
(3.01496 -2.96741e-18 0)
(3.01717 -2.9589e-18 0)
(3.01938 -2.9503e-18 0)
(3.02157 -2.94162e-18 0)
(3.02375 -2.93285e-18 0)
(3.02593 -2.924e-18 0)
(3.0281 -2.91505e-18 0)
(3.03026 -2.90603e-18 0)
(3.03241 -2.89692e-18 0)
(3.03456 -2.88772e-18 0)
(3.0367 -2.87844e-18 0)
(3.03882 -2.86907e-18 0)
(3.04094 -2.85963e-18 0)
(3.04305 -2.8501e-18 0)
(3.04516 -2.84049e-18 0)
(3.04725 -2.8308e-18 0)
(3.04934 -2.82104e-18 0)
(3.05141 -2.81119e-18 0)
(3.05348 -2.80127e-18 0)
(3.05554 -2.79127e-18 0)
(3.05759 -2.78121e-18 0)
(3.05964 -2.77106e-18 0)
(3.06167 -2.76085e-18 0)
(3.06369 -2.75057e-18 0)
(3.06571 -2.74022e-18 0)
(3.06772 -2.7298e-18 0)
(3.06972 -2.71931e-18 0)
(3.0717 -2.70877e-18 0)
(3.07369 -2.69816e-18 0)
(3.07566 -2.68749e-18 0)
(3.07762 -2.67676e-18 0)
(3.07957 -2.66597e-18 0)
(3.08152 -2.65512e-18 0)
(3.08345 -2.64423e-18 0)
(3.08538 -2.63327e-18 0)
(3.08729 -2.62227e-18 0)
(3.0892 -2.61122e-18 0)
(3.09109 -2.60012e-18 0)
(3.09298 -2.58897e-18 0)
(3.09486 -2.57778e-18 0)
(3.09673 -2.56655e-18 0)
(3.09859 -2.55528e-18 0)
(3.10044 -2.54396e-18 0)
(3.10228 -2.53261e-18 0)
(3.1041 -2.52122e-18 0)
(3.10592 -2.5098e-18 0)
(3.10773 -2.49834e-18 0)
(3.10953 -2.48685e-18 0)
(3.11132 -2.47533e-18 0)
(3.1131 -2.46379e-18 0)
(3.11487 -2.45222e-18 0)
(3.11663 -2.44062e-18 0)
(3.11838 -2.429e-18 0)
(3.12011 -2.41735e-18 0)
(3.12184 -2.40569e-18 0)
(3.12356 -2.39401e-18 0)
(3.12526 -2.38231e-18 0)
(3.12696 -2.37059e-18 0)
(3.12864 -2.35886e-18 0)
(3.13032 -2.34712e-18 0)
(3.13198 -2.33536e-18 0)
(3.13363 -2.3236e-18 0)
(3.13527 -2.31183e-18 0)
(3.1369 -2.30005e-18 0)
(3.13852 -2.28826e-18 0)
(3.14012 -2.27647e-18 0)
(3.14172 -2.26468e-18 0)
(3.1433 -2.25289e-18 0)
(3.14488 -2.24109e-18 0)
(3.14644 -2.2293e-18 0)
(3.14798 -2.21751e-18 0)
(3.14952 -2.20572e-18 0)
(3.15105 -2.19394e-18 0)
(3.15256 -2.18216e-18 0)
(3.15406 -2.17039e-18 0)
(3.15555 -2.15863e-18 0)
(3.15703 -2.14688e-18 0)
(3.15849 -2.13514e-18 0)
(3.15995 -2.12341e-18 0)
(3.16139 -2.11169e-18 0)
(3.16281 -2.09999e-18 0)
(3.16423 -2.08831e-18 0)
(3.16563 -2.07664e-18 0)
(3.16702 -2.06499e-18 0)
(3.1684 -2.05335e-18 0)
(3.16976 -2.04174e-18 0)
(3.17111 -2.03015e-18 0)
(3.17245 -2.01857e-18 0)
(3.17377 -2.00702e-18 0)
(3.17508 -1.9955e-18 0)
(3.17638 -1.984e-18 0)
(3.17766 -1.97252e-18 0)
(3.17894 -1.96107e-18 0)
(3.18019 -1.94964e-18 0)
(3.18144 -1.93825e-18 0)
(3.18267 -1.92688e-18 0)
(3.18388 -1.91554e-18 0)
(3.18508 -1.90424e-18 0)
(3.18627 -1.89296e-18 0)
(3.18744 -1.88171e-18 0)
(3.1886 -1.8705e-18 0)
(3.18975 -1.85932e-18 0)
(3.19088 -1.84818e-18 0)
(3.19199 -1.83707e-18 0)
(3.1931 -1.82599e-18 0)
(3.19418 -1.81495e-18 0)
(3.19525 -1.80395e-18 0)
(3.19631 -1.79299e-18 0)
(3.19735 -1.78206e-18 0)
(3.19838 -1.77117e-18 0)
(3.19939 -1.76032e-18 0)
(3.20039 -1.74951e-18 0)
(3.20137 -1.73874e-18 0)
(3.20234 -1.72801e-18 0)
(3.20329 -1.71732e-18 0)
(3.20423 -1.70668e-18 0)
(3.20515 -1.69607e-18 0)
(3.20606 -1.68551e-18 0)
(3.20695 -1.67499e-18 0)
(3.20782 -1.66452e-18 0)
(3.20868 -1.65409e-18 0)
(3.20952 -1.6437e-18 0)
(3.21035 -1.63336e-18 0)
(3.21116 -1.62306e-18 0)
(3.21195 -1.61281e-18 0)
(3.21273 -1.6026e-18 0)
(3.2135 -1.59244e-18 0)
(3.21424 -1.58233e-18 0)
(3.21497 -1.57226e-18 0)
(3.21569 -1.56224e-18 0)
(3.21638 -1.55227e-18 0)
(3.21707 -1.54234e-18 0)
(3.21773 -1.53246e-18 0)
(3.21838 -1.52263e-18 0)
(3.21901 -1.51285e-18 0)
(3.21963 -1.50312e-18 0)
(3.22023 -1.49343e-18 0)
(3.22081 -1.4838e-18 0)
(3.22137 -1.47421e-18 0)
(3.22192 -1.46467e-18 0)
(3.22245 -1.45518e-18 0)
(3.22297 -1.44574e-18 0)
(3.22347 -1.43634e-18 0)
(3.22395 -1.427e-18 0)
(3.22441 -1.41771e-18 0)
(3.22486 -1.40846e-18 0)
(3.22529 -1.39927e-18 0)
(3.22571 -1.39012e-18 0)
(3.2261 -1.38103e-18 0)
(3.22648 -1.37198e-18 0)
(3.22684 -1.36298e-18 0)
(3.22719 -1.35404e-18 0)
(3.22752 -1.34514e-18 0)
(3.22783 -1.33629e-18 0)
(3.22812 -1.32749e-18 0)
(3.2284 -1.31874e-18 0)
(3.22866 -1.31004e-18 0)
(3.2289 -1.30138e-18 0)
(3.22913 -1.29278e-18 0)
(3.22933 -1.28423e-18 0)
(3.22952 -1.27572e-18 0)
(3.2297 -1.26727e-18 0)
(3.22985 -1.25886e-18 0)
(3.22999 -1.25048e-18 0)
(3.23011 -1.24214e-18 0)
(3.23022 -1.23382e-18 0)
(3.2303 -1.22554e-18 0)
(3.23037 -1.21729e-18 0)
(3.23043 -1.20909e-18 0)
(3.23046 -1.20092e-18 0)
(3.23048 -1.19279e-18 0)
(3.23048 -1.18469e-18 0)
(3.23046 -1.17663e-18 0)
(3.23043 -1.1686e-18 0)
(3.23037 -1.16061e-18 0)
(3.2303 -1.15266e-18 0)
(3.23022 -1.14474e-18 0)
(3.23011 -1.13686e-18 0)
(3.22999 -1.129e-18 0)
(3.22985 -1.12117e-18 0)
(3.2297 -1.11337e-18 0)
(3.22952 -1.10562e-18 0)
(3.22933 -1.09791e-18 0)
(3.22913 -1.09025e-18 0)
(3.2289 -1.08264e-18 0)
(3.22866 -1.07506e-18 0)
(3.2284 -1.06754e-18 0)
(3.22812 -1.06006e-18 0)
(3.22783 -1.05262e-18 0)
(3.22752 -1.04523e-18 0)
(3.22719 -1.03788e-18 0)
(3.22684 -1.03058e-18 0)
(3.22648 -1.02332e-18 0)
(3.2261 -1.01611e-18 0)
(3.22571 -1.00894e-18 0)
(3.22529 -1.00181e-18 0)
(3.22486 -9.94726e-19 0)
(3.22441 -9.87686e-19 0)
(3.22395 -9.80689e-19 0)
(3.22347 -9.73735e-19 0)
(3.22297 -9.66824e-19 0)
(3.22245 -9.59955e-19 0)
(3.22192 -9.5313e-19 0)
(3.22137 -9.46346e-19 0)
(3.22081 -9.39605e-19 0)
(3.22023 -9.32906e-19 0)
(3.21963 -9.26249e-19 0)
(3.21901 -9.19634e-19 0)
(3.21838 -9.13061e-19 0)
(3.21773 -9.06529e-19 0)
(3.21707 -9.00038e-19 0)
(3.21638 -8.93589e-19 0)
(3.21569 -8.87181e-19 0)
(3.21497 -8.80814e-19 0)
(3.21424 -8.74487e-19 0)
(3.2135 -8.68202e-19 0)
(3.21273 -8.61956e-19 0)
(3.21195 -8.55752e-19 0)
(3.21116 -8.49587e-19 0)
(3.21035 -8.43463e-19 0)
(3.20952 -8.37378e-19 0)
(3.20868 -8.31334e-19 0)
(3.20782 -8.25329e-19 0)
(3.20695 -8.19363e-19 0)
(3.20606 -8.13437e-19 0)
(3.20515 -8.0755e-19 0)
(3.20423 -8.01703e-19 0)
(3.20329 -7.95894e-19 0)
(3.20234 -7.90124e-19 0)
(3.20137 -7.84393e-19 0)
(3.20039 -7.78701e-19 0)
(3.19939 -7.73046e-19 0)
(3.19838 -7.6743e-19 0)
(3.19735 -7.61852e-19 0)
(3.19631 -7.56313e-19 0)
(3.19525 -7.5081e-19 0)
(3.19418 -7.45346e-19 0)
(3.1931 -7.39919e-19 0)
(3.19199 -7.34529e-19 0)
(3.19088 -7.29177e-19 0)
(3.18975 -7.23862e-19 0)
(3.1886 -7.18583e-19 0)
(3.18744 -7.13342e-19 0)
(3.18627 -7.08136e-19 0)
(3.18508 -7.02968e-19 0)
(3.18388 -6.97835e-19 0)
(3.18267 -6.92739e-19 0)
(3.18144 -6.87678e-19 0)
(3.18019 -6.82654e-19 0)
(3.17894 -6.77665e-19 0)
(3.17767 -6.72711e-19 0)
(3.17638 -6.67793e-19 0)
(3.17508 -6.62909e-19 0)
(3.17377 -6.58061e-19 0)
(3.17245 -6.53247e-19 0)
(3.17111 -6.48468e-19 0)
(3.16976 -6.43724e-19 0)
(3.1684 -6.39013e-19 0)
(3.16702 -6.34337e-19 0)
(3.16563 -6.29695e-19 0)
(3.16423 -6.25086e-19 0)
(3.16281 -6.20511e-19 0)
(3.16139 -6.15969e-19 0)
(3.15995 -6.1146e-19 0)
(3.15849 -6.06984e-19 0)
(3.15703 -6.02541e-19 0)
(3.15555 -5.98131e-19 0)
(3.15406 -5.93753e-19 0)
(3.15256 -5.89408e-19 0)
(3.15105 -5.85094e-19 0)
(3.14952 -5.80813e-19 0)
(3.14798 -5.76563e-19 0)
(3.14644 -5.72344e-19 0)
(3.14488 -5.68157e-19 0)
(3.1433 -5.64001e-19 0)
(3.14172 -5.59876e-19 0)
(3.14012 -5.55782e-19 0)
(3.13852 -5.51718e-19 0)
(3.1369 -5.47685e-19 0)
(3.13527 -5.43682e-19 0)
(3.13363 -5.39708e-19 0)
(3.13198 -5.35765e-19 0)
(3.13032 -5.31851e-19 0)
(3.12864 -5.27967e-19 0)
(3.12696 -5.24112e-19 0)
(3.12526 -5.20286e-19 0)
(3.12356 -5.16489e-19 0)
(3.12184 -5.1272e-19 0)
(3.12011 -5.0898e-19 0)
(3.11838 -5.05268e-19 0)
(3.11663 -5.01584e-19 0)
(3.11487 -4.97929e-19 0)
(3.1131 -4.94301e-19 0)
(3.11132 -4.907e-19 0)
(3.10953 -4.87127e-19 0)
(3.10773 -4.83581e-19 0)
(3.10592 -4.80062e-19 0)
(3.1041 -4.76569e-19 0)
(3.10228 -4.73104e-19 0)
(3.10044 -4.69664e-19 0)
(3.09859 -4.66251e-19 0)
(3.09673 -4.62864e-19 0)
(3.09486 -4.59503e-19 0)
(3.09298 -4.56167e-19 0)
(3.09109 -4.52857e-19 0)
(3.0892 -4.49572e-19 0)
(3.08729 -4.46313e-19 0)
(3.08538 -4.43078e-19 0)
(3.08345 -4.39868e-19 0)
(3.08152 -4.36682e-19 0)
(3.07957 -4.33521e-19 0)
(3.07762 -4.30385e-19 0)
(3.07566 -4.27272e-19 0)
(3.07369 -4.24183e-19 0)
(3.07171 -4.21117e-19 0)
(3.06972 -4.18076e-19 0)
(3.06772 -4.15057e-19 0)
(3.06571 -4.12062e-19 0)
(3.06369 -4.0909e-19 0)
(3.06167 -4.0614e-19 0)
(3.05964 -4.03213e-19 0)
(3.05759 -4.00309e-19 0)
(3.05554 -3.97427e-19 0)
(3.05348 -3.94567e-19 0)
(3.05141 -3.91729e-19 0)
(3.04934 -3.88913e-19 0)
(3.04725 -3.86119e-19 0)
(3.04516 -3.83346e-19 0)
(3.04305 -3.80594e-19 0)
(3.04094 -3.77864e-19 0)
(3.03882 -3.75154e-19 0)
(3.0367 -3.72465e-19 0)
(3.03456 -3.69797e-19 0)
(3.03242 -3.6715e-19 0)
(3.03026 -3.64523e-19 0)
(3.0281 -3.61916e-19 0)
(3.02593 -3.59329e-19 0)
(3.02375 -3.56762e-19 0)
(3.02157 -3.54215e-19 0)
(3.01938 -3.51687e-19 0)
(3.01717 -3.49179e-19 0)
(3.01496 -3.4669e-19 0)
(3.01275 -3.44221e-19 0)
(3.01052 -3.4177e-19 0)
(3.00829 -3.39338e-19 0)
(3.00604 -3.36925e-19 0)
(3.00379 -3.3453e-19 0)
(3.00154 -3.32154e-19 0)
(2.99927 -3.29796e-19 0)
(2.997 -3.27457e-19 0)
(2.99471 -3.25135e-19 0)
(2.99242 -3.22831e-19 0)
(2.99013 -3.20545e-19 0)
(2.98782 -3.18276e-19 0)
(2.98551 -3.16025e-19 0)
(2.98319 -3.13791e-19 0)
(2.98086 -3.11575e-19 0)
(2.97852 -3.09375e-19 0)
(2.97618 -3.07193e-19 0)
(2.97382 -3.05027e-19 0)
(2.97146 -3.02877e-19 0)
(2.9691 -3.00745e-19 0)
(2.96672 -2.98629e-19 0)
(2.96434 -2.96529e-19 0)
(2.96195 -2.94445e-19 0)
(2.95955 -2.92377e-19 0)
(2.95714 -2.90325e-19 0)
(2.95473 -2.88289e-19 0)
(2.95231 -2.86268e-19 0)
(2.94988 -2.84263e-19 0)
(2.94744 -2.82274e-19 0)
(2.94499 -2.80299e-19 0)
(2.94254 -2.7834e-19 0)
(2.94008 -2.76396e-19 0)
(2.93761 -2.74467e-19 0)
(2.93514 -2.72553e-19 0)
(2.93265 -2.70653e-19 0)
(2.93016 -2.68768e-19 0)
(2.92766 -2.66898e-19 0)
(2.92516 -2.65042e-19 0)
(2.92264 -2.632e-19 0)
(2.92012 -2.61372e-19 0)
(2.91759 -2.59559e-19 0)
(2.91505 -2.57759e-19 0)
(2.91251 -2.55973e-19 0)
(2.90996 -2.54201e-19 0)
(2.90739 -2.52442e-19 0)
(2.90483 -2.50697e-19 0)
(2.90225 -2.48966e-19 0)
(2.89967 -2.47247e-19 0)
(2.89707 -2.45542e-19 0)
(2.89447 -2.4385e-19 0)
(2.89187 -2.42171e-19 0)
(2.88925 -2.40505e-19 0)
(2.88663 -2.38852e-19 0)
(2.884 -2.37211e-19 0)
(2.88136 -2.35583e-19 0)
(2.87871 -2.33967e-19 0)
(2.87605 -2.32364e-19 0)
(2.87339 -2.30773e-19 0)
(2.87072 -2.29195e-19 0)
(2.86804 -2.27628e-19 0)
(2.86535 -2.26074e-19 0)
(2.86266 -2.24531e-19 0)
(2.85995 -2.23001e-19 0)
(2.85724 -2.21482e-19 0)
(2.85452 -2.19974e-19 0)
(2.8518 -2.18479e-19 0)
(2.84906 -2.16994e-19 0)
(2.84632 -2.15522e-19 0)
(2.84356 -2.1406e-19 0)
(2.8408 -2.1261e-19 0)
(2.83803 -2.11171e-19 0)
(2.83526 -2.09742e-19 0)
(2.83247 -2.08325e-19 0)
(2.82968 -2.06919e-19 0)
(2.82687 -2.05524e-19 0)
(2.82406 -2.04139e-19 0)
(2.82124 -2.02765e-19 0)
(2.81842 -2.01401e-19 0)
(2.81558 -2.00048e-19 0)
(2.81273 -1.98705e-19 0)
(2.80988 -1.97373e-19 0)
(2.80702 -1.96051e-19 0)
(2.80415 -1.94739e-19 0)
(2.80127 -1.93437e-19 0)
(2.79838 -1.92145e-19 0)
(2.79548 -1.90863e-19 0)
(2.79257 -1.89591e-19 0)
(2.78966 -1.88328e-19 0)
(2.78673 -1.87075e-19 0)
(2.7838 -1.85832e-19 0)
(2.78085 -1.84599e-19 0)
(2.7779 -1.83375e-19 0)
(2.77494 -1.8216e-19 0)
(2.77197 -1.80954e-19 0)
(2.76899 -1.79758e-19 0)
(2.766 -1.78571e-19 0)
(2.763 -1.77393e-19 0)
(2.75999 -1.76225e-19 0)
(2.75697 -1.75065e-19 0)
(2.75394 -1.73914e-19 0)
(2.75091 -1.72772e-19 0)
(2.74786 -1.71638e-19 0)
(2.7448 -1.70514e-19 0)
(2.74173 -1.69398e-19 0)
(2.73866 -1.6829e-19 0)
(2.73557 -1.67191e-19 0)
(2.73247 -1.66101e-19 0)
(2.72936 -1.65019e-19 0)
(2.72624 -1.63945e-19 0)
(2.72312 -1.62879e-19 0)
(2.71998 -1.61822e-19 0)
(2.71683 -1.60772e-19 0)
(2.71367 -1.59731e-19 0)
(2.7105 -1.58698e-19 0)
(2.70731 -1.57672e-19 0)
(2.70412 -1.56655e-19 0)
(2.70092 -1.55645e-19 0)
(2.6977 -1.54643e-19 0)
(2.69448 -1.53648e-19 0)
(2.69124 -1.52662e-19 0)
(2.688 -1.51683e-19 0)
(2.68474 -1.50711e-19 0)
(2.68146 -1.49747e-19 0)
(2.67818 -1.4879e-19 0)
(2.67489 -1.4784e-19 0)
(2.67158 -1.46898e-19 0)
(2.66826 -1.45963e-19 0)
(2.66494 -1.45035e-19 0)
(2.66159 -1.44114e-19 0)
(2.65824 -1.432e-19 0)
(2.65487 -1.42294e-19 0)
(2.65149 -1.41394e-19 0)
(2.6481 -1.40501e-19 0)
(2.6447 -1.39615e-19 0)
(2.64128 -1.38735e-19 0)
(2.63785 -1.37862e-19 0)
(2.63441 -1.36996e-19 0)
(2.63095 -1.36137e-19 0)
(2.62748 -1.35284e-19 0)
(2.624 -1.34438e-19 0)
(2.62051 -1.33598e-19 0)
(2.617 -1.32764e-19 0)
(2.61347 -1.31937e-19 0)
(2.60993 -1.31116e-19 0)
(2.60638 -1.30301e-19 0)
(2.60282 -1.29493e-19 0)
(2.59924 -1.2869e-19 0)
(2.59564 -1.27894e-19 0)
(2.59203 -1.27104e-19 0)
(2.58841 -1.26319e-19 0)
(2.58477 -1.25541e-19 0)
(2.58111 -1.24769e-19 0)
(2.57744 -1.24002e-19 0)
(2.57375 -1.23241e-19 0)
(2.57005 -1.22486e-19 0)
(2.56633 -1.21736e-19 0)
(2.5626 -1.20993e-19 0)
(2.55885 -1.20255e-19 0)
(2.55508 -1.19522e-19 0)
(2.5513 -1.18795e-19 0)
(2.5475 -1.18073e-19 0)
(2.54369 -1.17357e-19 0)
(2.53985 -1.16646e-19 0)
(2.536 -1.1594e-19 0)
(2.53213 -1.1524e-19 0)
(2.52824 -1.14545e-19 0)
(2.52434 -1.13855e-19 0)
(2.52041 -1.1317e-19 0)
(2.51647 -1.1249e-19 0)
(2.51251 -1.11816e-19 0)
(2.50853 -1.11146e-19 0)
(2.50453 -1.10481e-19 0)
(2.50051 -1.09821e-19 0)
(2.49648 -1.09166e-19 0)
(2.49242 -1.08516e-19 0)
(2.48834 -1.07871e-19 0)
(2.48424 -1.0723e-19 0)
(2.48012 -1.06594e-19 0)
(2.47598 -1.05963e-19 0)
(2.47182 -1.05336e-19 0)
(2.46764 -1.04714e-19 0)
(2.46343 -1.04096e-19 0)
(2.4592 -1.03483e-19 0)
(2.45495 -1.02874e-19 0)
(2.45068 -1.0227e-19 0)
(2.44638 -1.0167e-19 0)
(2.44206 -1.01074e-19 0)
(2.43772 -1.00482e-19 0)
(2.43335 -9.98949e-20 0)
(2.42896 -9.93117e-20 0)
(2.42454 -9.87326e-20 0)
(2.4201 -9.81576e-20 0)
(2.41563 -9.75866e-20 0)
(2.41114 -9.70196e-20 0)
(2.40662 -9.64565e-20 0)
(2.40207 -9.58974e-20 0)
(2.3975 -9.5342e-20 0)
(2.39289 -9.47906e-20 0)
(2.38826 -9.42428e-20 0)
(2.38361 -9.36988e-20 0)
(2.37892 -9.31585e-20 0)
(2.3742 -9.26218e-20 0)
(2.36946 -9.20887e-20 0)
(2.36468 -9.15592e-20 0)
(2.35987 -9.10332e-20 0)
(2.35503 -9.05106e-20 0)
(2.35016 -8.99915e-20 0)
(2.34526 -8.94757e-20 0)
(2.34033 -8.89633e-20 0)
(2.33536 -8.84542e-20 0)
(2.33035 -8.79483e-20 0)
(2.32532 -8.74456e-20 0)
(2.32025 -8.6946e-20 0)
(2.31514 -8.64496e-20 0)
(2.30999 -8.59562e-20 0)
(2.30481 -8.54659e-20 0)
(2.29959 -8.49785e-20 0)
(2.29434 -8.4494e-20 0)
(2.28904 -8.40124e-20 0)
(2.2837 -8.35336e-20 0)
(2.27833 -8.30577e-20 0)
(2.27291 -8.25844e-20 0)
(2.26745 -8.21138e-20 0)
(2.26195 -8.16459e-20 0)
(2.2564 -8.11806e-20 0)
(2.25081 -8.07177e-20 0)
(2.24518 -8.02574e-20 0)
(2.2395 -7.97995e-20 0)
(2.23377 -7.9344e-20 0)
(2.22799 -7.88908e-20 0)
(2.22217 -7.84399e-20 0)
(2.21629 -7.79913e-20 0)
(2.21036 -7.75448e-20 0)
(2.20439 -7.71004e-20 0)
(2.19836 -7.6658e-20 0)
(2.19227 -7.62177e-20 0)
(2.18613 -7.57793e-20 0)
(2.17993 -7.53428e-20 0)
(2.17368 -7.49082e-20 0)
(2.16736 -7.44753e-20 0)
(2.16099 -7.40441e-20 0)
(2.15455 -7.36145e-20 0)
(2.14805 -7.31865e-20 0)
(2.14149 -7.27601e-20 0)
(2.13486 -7.23351e-20 0)
(2.12816 -7.19114e-20 0)
(2.1214 -7.14891e-20 0)
(2.11456 -7.1068e-20 0)
(2.10765 -7.06481e-20 0)
(2.10067 -7.02292e-20 0)
(2.09361 -6.98114e-20 0)
(2.08647 -6.93945e-20 0)
(2.07925 -6.89785e-20 0)
(2.07195 -6.85633e-20 0)
(2.06457 -6.81487e-20 0)
(2.0571 -6.77347e-20 0)
(2.04954 -6.73213e-20 0)
(2.04189 -6.69083e-20 0)
(2.03414 -6.64956e-20 0)
(2.0263 -6.60831e-20 0)
(2.01836 -6.56708e-20 0)
(2.01032 -6.52585e-20 0)
(2.00218 -6.48461e-20 0)
(1.99392 -6.44335e-20 0)
(1.98556 -6.40206e-20 0)
(1.97708 -6.36073e-20 0)
(1.96848 -6.31934e-20 0)
(1.95976 -6.27788e-20 0)
(1.95092 -6.23634e-20 0)
(1.94194 -6.19471e-20 0)
(1.93283 -6.15296e-20 0)
(1.92359 -6.11109e-20 0)
(1.9142 -6.06908e-20 0)
(1.90466 -6.0269e-20 0)
(1.89497 -5.98456e-20 0)
(1.88512 -5.94202e-20 0)
(1.87511 -5.89926e-20 0)
(1.86492 -5.85628e-20 0)
(1.85456 -5.81303e-20 0)
(1.84402 -5.76952e-20 0)
(1.83328 -5.7257e-20 0)
(1.82235 -5.68156e-20 0)
(1.81121 -5.63707e-20 0)
(1.79985 -5.5922e-20 0)
(1.78827 -5.54692e-20 0)
(1.77645 -5.50121e-20 0)
(1.76439 -5.45502e-20 0)
(1.75207 -5.40833e-20 0)
(1.73949 -5.36109e-20 0)
(1.72662 -5.31327e-20 0)
(1.71346 -5.26482e-20 0)
(1.69999 -5.2157e-20 0)
(1.68619 -5.16585e-20 0)
(1.67205 -5.11523e-20 0)
(1.65754 -5.06377e-20 0)
(1.64265 -5.01141e-20 0)
(1.62736 -4.95809e-20 0)
(1.61164 -4.90373e-20 0)
(1.59546 -4.84824e-20 0)
(1.5788 -4.79155e-20 0)
(1.56161 -4.73355e-20 0)
(1.54388 -4.67413e-20 0)
(1.52555 -4.61318e-20 0)
(1.50658 -4.55057e-20 0)
(1.48693 -4.48614e-20 0)
(1.46653 -4.41973e-20 0)
(1.44534 -4.35115e-20 0)
(1.42327 -4.2802e-20 0)
(1.40024 -4.20663e-20 0)
(1.37617 -4.13016e-20 0)
(1.35094 -4.05049e-20 0)
(1.32443 -3.96723e-20 0)
(1.2965 -3.87996e-20 0)
(1.26697 -3.78816e-20 0)
(1.23564 -3.69121e-20 0)
(1.20225 -3.58837e-20 0)
(1.1665 -3.47873e-20 0)
(1.12799 -3.36114e-20 0)
(1.08625 -3.23415e-20 0)
(1.04064 -3.09589e-20 0)
(0.990311 -2.94389e-20 0)
(0.934129 -2.77475e-20 0)
(0.870484 -2.58372e-20 0)
(0.797037 -2.3639e-20 0)
(0.710279 -2.10494e-20 0)
(0.604883 -1.79114e-20 0)
(0.473367 -1.40047e-20 0)
(0.308965 -9.13177e-21 0)
(0.11524 -3.40173e-21 0)
)
;

boundaryField
{
    top_wall
    {
        type            noSlip;
    }
    inlet
    {
        type            cyclic;
    }
    bot_wall
    {
        type            noSlip;
    }
    outlet
    {
        type            cyclic;
    }
    frontAndBack
    {
        type            empty;
    }
}


// ************************************************************************* //
