/*--------------------------------*- C++ -*----------------------------------*\
| =========                 |                                                 |
| \\      /  F ield         | OpenFOAM: The Open Source CFD Toolbox           |
|  \\    /   O peration     | Version:  2406                                  |
|   \\  /    A nd           | Website:  www.openfoam.com                      |
|    \\/     M anipulation  |                                                 |
\*---------------------------------------------------------------------------*/
FoamFile
{
    version     2.0;
    format      ascii;
    arch        "LSB;label=32;scalar=64";
    class       volScalarField;
    location    "17.925";
    object      k;
}
// * * * * * * * * * * * * * * * * * * * * * * * * * * * * * * * * * * * * * //

dimensions      [0 2 -2 0 0 0 0];

internalField   nonuniform List<scalar> 
1000
(
0.000388071
0.000245467
0.00133912
0.00468823
0.0114279
0.0217219
0.0343214
0.0473634
0.0594603
0.0700012
0.0789041
0.0863268
0.0924972
0.0976381
0.101942
0.105565
0.108635
0.111251
0.113492
0.115422
0.117091
0.118541
0.119804
0.120908
0.121874
0.122722
0.123466
0.12412
0.124695
0.1252
0.125643
0.12603
0.126368
0.126662
0.126916
0.127135
0.127321
0.127477
0.127607
0.127712
0.127795
0.127857
0.127901
0.127928
0.127938
0.127934
0.127916
0.127886
0.127844
0.127791
0.127728
0.127656
0.127575
0.127486
0.127389
0.127285
0.127174
0.127057
0.126934
0.126805
0.126671
0.126532
0.126388
0.12624
0.126088
0.125931
0.125771
0.125608
0.125441
0.12527
0.125097
0.124921
0.124742
0.124561
0.124377
0.12419
0.124001
0.12381
0.123617
0.123422
0.123226
0.123027
0.122826
0.122624
0.12242
0.122215
0.122008
0.1218
0.12159
0.121379
0.121167
0.120953
0.120738
0.120522
0.120305
0.120087
0.119868
0.119648
0.119426
0.119204
0.118981
0.118757
0.118532
0.118307
0.11808
0.117853
0.117624
0.117395
0.117166
0.116935
0.116704
0.116472
0.11624
0.116007
0.115773
0.115538
0.115303
0.115068
0.114831
0.114594
0.114357
0.114119
0.11388
0.113641
0.113401
0.113161
0.11292
0.112679
0.112437
0.112195
0.111952
0.111709
0.111465
0.111221
0.110976
0.110731
0.110485
0.110239
0.109992
0.109745
0.109498
0.10925
0.109002
0.108753
0.108504
0.108254
0.108004
0.107754
0.107503
0.107251
0.107
0.106748
0.106495
0.106242
0.105989
0.105735
0.105481
0.105227
0.104972
0.104717
0.104461
0.104205
0.103949
0.103692
0.103435
0.103177
0.10292
0.102661
0.102403
0.102144
0.101885
0.101625
0.101365
0.101105
0.100844
0.100583
0.100321
0.10006
0.0997977
0.0995352
0.0992725
0.0990094
0.098746
0.0984822
0.0982181
0.0979537
0.0976889
0.0974238
0.0971584
0.0968927
0.0966267
0.0963603
0.0960936
0.0958266
0.0955593
0.0952917
0.0950238
0.0947555
0.094487
0.0942182
0.093949
0.0936796
0.0934098
0.0931398
0.0928695
0.0925989
0.0923279
0.0920568
0.0917853
0.0915135
0.0912415
0.0909692
0.0906966
0.0904237
0.0901506
0.0898772
0.0896035
0.0893296
0.0890554
0.0887809
0.0885062
0.0882313
0.0879561
0.0876806
0.0874049
0.087129
0.0868528
0.0865763
0.0862997
0.0860228
0.0857457
0.0854683
0.0851908
0.084913
0.084635
0.0843568
0.0840783
0.0837997
0.0835209
0.0832418
0.0829626
0.0826831
0.0824035
0.0821237
0.0818437
0.0815635
0.0812831
0.0810026
0.0807219
0.080441
0.0801599
0.0798787
0.0795974
0.0793159
0.0790342
0.0787524
0.0784704
0.0781883
0.0779061
0.0776237
0.0773412
0.0770586
0.0767759
0.0764931
0.0762101
0.075927
0.0756439
0.0753606
0.0750773
0.0747938
0.0745103
0.0742267
0.073943
0.0736592
0.0733754
0.0730915
0.0728076
0.0725236
0.0722395
0.0719555
0.0716713
0.0713872
0.071103
0.0708188
0.0705346
0.0702503
0.0699661
0.0696819
0.0693976
0.0691134
0.0688292
0.068545
0.0682608
0.0679767
0.0676926
0.0674085
0.0671245
0.0668405
0.0665566
0.0662728
0.065989
0.0657054
0.0654218
0.0651382
0.0648548
0.0645715
0.0642883
0.0640053
0.0637223
0.0634395
0.0631568
0.0628742
0.0625918
0.0623096
0.0620275
0.0617456
0.0614639
0.0611824
0.060901
0.0606199
0.0603389
0.0600582
0.0597777
0.0594974
0.0592174
0.0589376
0.0586581
0.0583788
0.0580998
0.0578211
0.0575427
0.0572646
0.0569867
0.0567092
0.056432
0.0561552
0.0558786
0.0556025
0.0553266
0.0550512
0.0547761
0.0545014
0.0542271
0.0539532
0.0536798
0.0534067
0.0531341
0.0528619
0.0525902
0.0523189
0.0520482
0.0517779
0.0515081
0.0512388
0.05097
0.0507018
0.0504341
0.0501669
0.0499003
0.0496343
0.0493689
0.049104
0.0488398
0.0485762
0.0483133
0.0480509
0.0477893
0.0475283
0.047268
0.0470084
0.0467495
0.0464913
0.0462339
0.0459772
0.0457213
0.0454661
0.0452118
0.0449582
0.0447055
0.0444536
0.0442026
0.0439524
0.0437031
0.0434547
0.0432072
0.0429607
0.0427151
0.0424704
0.0422267
0.041984
0.0417423
0.0415017
0.041262
0.0410235
0.040786
0.0405496
0.0403143
0.0400801
0.0398471
0.0396152
0.0393845
0.0391551
0.0389268
0.0386998
0.038474
0.0382496
0.0380264
0.0378045
0.037584
0.0373648
0.037147
0.0369306
0.0367156
0.0365021
0.03629
0.0360794
0.0358703
0.0356627
0.0354567
0.0352522
0.0350494
0.0348481
0.0346485
0.0344506
0.0342543
0.0340598
0.033867
0.0336759
0.0334866
0.0332992
0.0331135
0.0329297
0.0327478
0.0325678
0.0323897
0.0322136
0.0320394
0.0318672
0.0316971
0.031529
0.031363
0.0311991
0.0310374
0.0308777
0.0307203
0.0305651
0.0304121
0.0302614
0.0301129
0.0299668
0.029823
0.0296815
0.0295425
0.0294059
0.0292717
0.0291399
0.0290107
0.028884
0.0287598
0.0286381
0.0285191
0.0284027
0.0282889
0.0281778
0.0280694
0.0279636
0.0278606
0.0277604
0.027663
0.0275683
0.0274765
0.0273875
0.0273013
0.0272181
0.0271377
0.0270603
0.0269858
0.0269143
0.0268458
0.0267802
0.0267177
0.0266582
0.0266017
0.0265483
0.0264979
0.0264507
0.0264065
0.0263654
0.0263275
0.0262927
0.026261
0.0262324
0.026207
0.0261848
0.0261657
0.0261498
0.0261371
0.0261276
0.0261212
0.026118
0.026118
0.0261212
0.0261276
0.0261371
0.0261498
0.0261657
0.0261848
0.026207
0.0262324
0.026261
0.0262927
0.0263275
0.0263654
0.0264065
0.0264507
0.0264979
0.0265483
0.0266017
0.0266582
0.0267177
0.0267802
0.0268458
0.0269143
0.0269858
0.0270603
0.0271377
0.0272181
0.0273013
0.0273875
0.0274765
0.0275683
0.0276629
0.0277604
0.0278606
0.0279636
0.0280693
0.0281778
0.0282889
0.0284027
0.0285191
0.0286381
0.0287597
0.0288839
0.0290107
0.0291399
0.0292716
0.0294058
0.0295425
0.0296815
0.029823
0.0299668
0.0301129
0.0302613
0.0304121
0.0305651
0.0307203
0.0308777
0.0310373
0.0311991
0.031363
0.031529
0.0316971
0.0318672
0.0320394
0.0322135
0.0323897
0.0325677
0.0327478
0.0329297
0.0331135
0.0332991
0.0334866
0.0336759
0.0338669
0.0340598
0.0342543
0.0344506
0.0346485
0.0348481
0.0350493
0.0352522
0.0354566
0.0356627
0.0358702
0.0360793
0.0362899
0.036502
0.0367156
0.0369305
0.0371469
0.0373647
0.0375839
0.0378045
0.0380263
0.0382495
0.038474
0.0386998
0.0389268
0.039155
0.0393845
0.0396152
0.039847
0.0400801
0.0403142
0.0405495
0.0407859
0.0410234
0.041262
0.0415016
0.0417423
0.041984
0.0422267
0.0424704
0.042715
0.0429607
0.0432072
0.0434547
0.0437031
0.0439524
0.0442026
0.0444536
0.0447055
0.0449582
0.0452118
0.0454661
0.0457213
0.0459772
0.0462339
0.0464913
0.0467495
0.0470084
0.047268
0.0475283
0.0477893
0.0480509
0.0483132
0.0485762
0.0488398
0.049104
0.0493688
0.0496343
0.0499003
0.0501669
0.050434
0.0507017
0.05097
0.0512387
0.051508
0.0517778
0.0520481
0.0523189
0.0525902
0.0528619
0.053134
0.0534067
0.0536797
0.0539532
0.0542271
0.0545014
0.0547761
0.0550511
0.0553266
0.0556024
0.0558786
0.0561551
0.056432
0.0567092
0.0569867
0.0572645
0.0575426
0.0578211
0.0580998
0.0583788
0.058658
0.0589376
0.0592174
0.0594974
0.0597776
0.0600581
0.0603389
0.0606198
0.060901
0.0611823
0.0614638
0.0617456
0.0620275
0.0623095
0.0625918
0.0628742
0.0631567
0.0634394
0.0637222
0.0640052
0.0642883
0.0645715
0.0648548
0.0651382
0.0654217
0.0657053
0.065989
0.0662727
0.0665565
0.0668404
0.0671244
0.0674084
0.0676925
0.0679766
0.0682607
0.0685449
0.0688291
0.0691133
0.0693975
0.0696818
0.069966
0.0702503
0.0705345
0.0708187
0.0711029
0.0713871
0.0716713
0.0719554
0.0722395
0.0725235
0.0728075
0.0730914
0.0733753
0.0736591
0.0739429
0.0742266
0.0745102
0.0747937
0.0750772
0.0753605
0.0756438
0.0759269
0.07621
0.076493
0.0767758
0.0770585
0.0773412
0.0776236
0.077906
0.0781882
0.0784703
0.0787523
0.0790341
0.0793158
0.0795973
0.0798787
0.0801599
0.0804409
0.0807218
0.0810025
0.081283
0.0815634
0.0818436
0.0821236
0.0824034
0.0826831
0.0829625
0.0832417
0.0835208
0.0837996
0.0840783
0.0843567
0.0846349
0.0849129
0.0851907
0.0854683
0.0857456
0.0860227
0.0862996
0.0865763
0.0868527
0.0871289
0.0874048
0.0876805
0.087956
0.0882312
0.0885062
0.0887809
0.0890553
0.0893295
0.0896034
0.0898771
0.0901505
0.0904236
0.0906965
0.0909691
0.0912414
0.0915134
0.0917852
0.0920567
0.0923279
0.0925988
0.0928694
0.0931397
0.0934098
0.0936795
0.0939489
0.0942181
0.0944869
0.0947555
0.0950237
0.0952916
0.0955593
0.0958266
0.0960936
0.0963602
0.0966266
0.0968927
0.0971584
0.0974238
0.0976889
0.0979536
0.098218
0.0984821
0.0987459
0.0990093
0.0992724
0.0995352
0.0997976
0.10006
0.100321
0.100583
0.100844
0.101105
0.101365
0.101625
0.101884
0.102144
0.102403
0.102661
0.102919
0.103177
0.103435
0.103692
0.103949
0.104205
0.104461
0.104717
0.104972
0.105227
0.105481
0.105735
0.105989
0.106242
0.106495
0.106748
0.107
0.107251
0.107503
0.107753
0.108004
0.108254
0.108504
0.108753
0.109002
0.10925
0.109498
0.109745
0.109992
0.110239
0.110485
0.110731
0.110976
0.111221
0.111465
0.111709
0.111952
0.112195
0.112437
0.112679
0.11292
0.113161
0.113401
0.113641
0.11388
0.114119
0.114357
0.114594
0.114831
0.115068
0.115303
0.115538
0.115773
0.116007
0.11624
0.116472
0.116704
0.116935
0.117166
0.117395
0.117624
0.117853
0.11808
0.118306
0.118532
0.118757
0.118981
0.119204
0.119426
0.119648
0.119868
0.120087
0.120305
0.120522
0.120738
0.120953
0.121167
0.121379
0.12159
0.1218
0.122008
0.122215
0.12242
0.122624
0.122826
0.123027
0.123226
0.123422
0.123617
0.12381
0.124001
0.12419
0.124377
0.124561
0.124742
0.124921
0.125097
0.12527
0.125441
0.125608
0.125771
0.125931
0.126088
0.12624
0.126388
0.126532
0.126671
0.126805
0.126933
0.127057
0.127174
0.127285
0.127389
0.127486
0.127575
0.127656
0.127728
0.127791
0.127844
0.127886
0.127916
0.127934
0.127938
0.127927
0.127901
0.127857
0.127795
0.127712
0.127607
0.127477
0.12732
0.127135
0.126916
0.126662
0.126368
0.12603
0.125643
0.1252
0.124695
0.12412
0.123466
0.122722
0.121874
0.120908
0.119804
0.118541
0.117091
0.115422
0.113492
0.111251
0.108635
0.105565
0.101942
0.0976381
0.0924972
0.0863268
0.078904
0.0700011
0.0594602
0.0473633
0.0343214
0.0217219
0.0114279
0.00468823
0.00133912
0.000245467
0.000388071
)
;

boundaryField
{
    top_wall
    {
        type            kLowReWallFunction;
        value           uniform 1.15017e-08;
    }
    inlet
    {
        type            cyclic;
    }
    bot_wall
    {
        type            kLowReWallFunction;
        value           uniform 1.15017e-08;
    }
    outlet
    {
        type            cyclic;
    }
    frontAndBack
    {
        type            empty;
    }
}


// ************************************************************************* //
