/*--------------------------------*- C++ -*----------------------------------*\
| =========                 |                                                 |
| \\      /  F ield         | OpenFOAM: The Open Source CFD Toolbox           |
|  \\    /   O peration     | Version:  2406                                  |
|   \\  /    A nd           | Website:  www.openfoam.com                      |
|    \\/     M anipulation  |                                                 |
\*---------------------------------------------------------------------------*/
FoamFile
{
    version     2.0;
    format      ascii;
    arch        "LSB;label=32;scalar=64";
    class       volScalarField;
    location    "17.925";
    object      nut;
}
// * * * * * * * * * * * * * * * * * * * * * * * * * * * * * * * * * * * * * //

dimensions      [0 2 -1 0 0 0 0];

internalField   nonuniform List<scalar> 
1000
(
6.06359e-09
2.18229e-08
3.42604e-07
2.41961e-06
9.58829e-06
2.58169e-05
5.31175e-05
9.07807e-05
0.000136748
0.000188937
0.000245718
0.000305915
0.00036869
0.000433444
0.000499736
0.000567236
0.000635691
0.000704904
0.000774718
0.000845005
0.000915664
0.000986607
0.00105776
0.00112908
0.00120049
0.00127196
0.00134345
0.00141493
0.00148637
0.00155774
0.00162903
0.0017002
0.00177125
0.00184216
0.00191292
0.00198351
0.00205392
0.00212414
0.00219416
0.00226398
0.00233358
0.00240296
0.00247211
0.00254103
0.00260971
0.00267815
0.00274634
0.00281428
0.00288196
0.00294938
0.00301654
0.00308343
0.00315005
0.0032164
0.00328248
0.00334827
0.00341379
0.00347903
0.00354399
0.00360866
0.00367305
0.00373714
0.00380095
0.00386447
0.00392769
0.00399063
0.00405326
0.00411561
0.00417765
0.0042394
0.00430085
0.004362
0.00442285
0.0044834
0.00454365
0.0046036
0.00466324
0.00472258
0.00478162
0.00484036
0.00489879
0.00495691
0.00501473
0.00507224
0.00512945
0.00518635
0.00524295
0.00529923
0.00535521
0.00541089
0.00546625
0.00552131
0.00557606
0.00563051
0.00568464
0.00573847
0.00579199
0.0058452
0.0058981
0.00595069
0.00600298
0.00605496
0.00610663
0.00615799
0.00620904
0.00625979
0.00631023
0.00636036
0.00641018
0.0064597
0.00650891
0.00655781
0.0066064
0.00665469
0.00670267
0.00675035
0.00679772
0.00684478
0.00689154
0.00693799
0.00698414
0.00702998
0.00707552
0.00712075
0.00716568
0.00721031
0.00725463
0.00729865
0.00734237
0.00738578
0.0074289
0.00747171
0.00751422
0.00755643
0.00759834
0.00763995
0.00768125
0.00772226
0.00776298
0.00780339
0.0078435
0.00788332
0.00792284
0.00796206
0.00800099
0.00803962
0.00807796
0.008116
0.00815375
0.0081912
0.00822836
0.00826523
0.0083018
0.00833808
0.00837408
0.00840978
0.00844519
0.00848031
0.00851514
0.00854968
0.00858393
0.0086179
0.00865158
0.00868497
0.00871807
0.00875089
0.00878343
0.00881568
0.00884765
0.00887933
0.00891073
0.00894185
0.00897269
0.00900324
0.00903352
0.00906351
0.00909323
0.00912267
0.00915183
0.00918071
0.00920931
0.00923764
0.00926569
0.00929347
0.00932097
0.0093482
0.00937516
0.00940184
0.00942825
0.00945439
0.00948025
0.00950585
0.00953118
0.00955624
0.00958102
0.00960555
0.0096298
0.00965379
0.00967751
0.00970096
0.00972415
0.00974708
0.00976974
0.00979214
0.00981427
0.00983615
0.00985776
0.00987911
0.0099002
0.00992103
0.00994161
0.00996192
0.00998198
0.0100018
0.0100213
0.0100406
0.0100596
0.0100784
0.0100969
0.0101152
0.0101332
0.010151
0.0101685
0.0101858
0.0102028
0.0102195
0.0102361
0.0102523
0.0102683
0.0102841
0.0102996
0.0103149
0.0103299
0.0103447
0.0103592
0.0103735
0.0103876
0.0104014
0.010415
0.0104283
0.0104414
0.0104542
0.0104668
0.0104792
0.0104913
0.0105032
0.0105148
0.0105262
0.0105374
0.0105483
0.010559
0.0105695
0.0105797
0.0105897
0.0105995
0.010609
0.0106183
0.0106274
0.0106362
0.0106448
0.0106532
0.0106614
0.0106693
0.010677
0.0106844
0.0106916
0.0106987
0.0107054
0.010712
0.0107183
0.0107244
0.0107303
0.0107359
0.0107414
0.0107466
0.0107516
0.0107563
0.0107609
0.0107652
0.0107693
0.0107732
0.0107768
0.0107803
0.0107835
0.0107865
0.0107893
0.0107919
0.0107942
0.0107964
0.0107983
0.0108
0.0108015
0.0108028
0.0108039
0.0108047
0.0108054
0.0108058
0.0108061
0.0108061
0.0108059
0.0108055
0.0108049
0.010804
0.010803
0.0108018
0.0108003
0.0107987
0.0107968
0.0107948
0.0107925
0.01079
0.0107873
0.0107845
0.0107814
0.0107781
0.0107746
0.0107709
0.010767
0.010763
0.0107587
0.0107542
0.0107495
0.0107446
0.0107396
0.0107343
0.0107288
0.0107232
0.0107173
0.0107112
0.010705
0.0106986
0.0106919
0.0106851
0.0106781
0.0106709
0.0106635
0.0106559
0.0106482
0.0106402
0.0106321
0.0106237
0.0106152
0.0106065
0.0105976
0.0105886
0.0105793
0.0105699
0.0105603
0.0105505
0.0105406
0.0105304
0.0105201
0.0105096
0.0104989
0.0104881
0.0104771
0.0104659
0.0104545
0.010443
0.0104313
0.0104195
0.0104074
0.0103952
0.0103829
0.0103704
0.0103577
0.0103448
0.0103318
0.0103187
0.0103054
0.0102919
0.0102783
0.0102645
0.0102505
0.0102365
0.0102222
0.0102079
0.0101934
0.0101787
0.0101639
0.010149
0.0101339
0.0101187
0.0101033
0.0100878
0.0100722
0.0100565
0.0100406
0.0100247
0.0100086
0.00999234
0.009976
0.00995954
0.00994298
0.0099263
0.00990952
0.00989263
0.00987564
0.00985856
0.00984138
0.0098241
0.00980674
0.00978929
0.00977175
0.00975414
0.00973644
0.00971868
0.00970084
0.00968294
0.00966497
0.00964694
0.00962886
0.00961073
0.00959254
0.00957432
0.00955605
0.00953775
0.00951941
0.00950105
0.00948267
0.00946426
0.00944585
0.00942742
0.009409
0.00939057
0.00937215
0.00935374
0.00933535
0.00931698
0.00929864
0.00928033
0.00926206
0.00924383
0.00922565
0.00920753
0.00918947
0.00917148
0.00915357
0.00913573
0.00911799
0.00910033
0.00908278
0.00906533
0.009048
0.00903078
0.0090137
0.00899675
0.00897993
0.00896327
0.00894676
0.00893042
0.00891424
0.00889824
0.00888242
0.0088668
0.00885137
0.00883615
0.00882115
0.00880636
0.0087918
0.00877748
0.0087634
0.00874957
0.008736
0.00872269
0.00870966
0.0086969
0.00868443
0.00867225
0.00866038
0.00864881
0.00863755
0.00862661
0.008616
0.00860573
0.00859579
0.0085862
0.00857696
0.00856808
0.00855956
0.0085514
0.00854363
0.00853623
0.00852921
0.00852258
0.00851634
0.0085105
0.00850507
0.00850003
0.0084954
0.00849118
0.00848738
0.00848399
0.00848102
0.00847847
0.00847635
0.00847464
0.00847336
0.00847251
0.00847208
0.00847208
0.00847251
0.00847336
0.00847464
0.00847634
0.00847847
0.00848102
0.00848399
0.00848738
0.00849118
0.0084954
0.00850002
0.00850506
0.0085105
0.00851634
0.00852257
0.0085292
0.00853622
0.00854361
0.00855139
0.00855954
0.00856806
0.00857694
0.00858618
0.00859578
0.00860571
0.00861599
0.0086266
0.00863753
0.00864879
0.00866036
0.00867223
0.00868441
0.00869688
0.00870964
0.00872267
0.00873598
0.00874955
0.00876338
0.00877746
0.00879178
0.00880634
0.00882112
0.00883613
0.00885135
0.00886677
0.0088824
0.00889821
0.00891421
0.00893039
0.00894673
0.00896324
0.00897991
0.00899672
0.00901367
0.00903075
0.00904797
0.0090653
0.00908275
0.0091003
0.00911795
0.0091357
0.00915354
0.00917145
0.00918944
0.0092075
0.00922562
0.0092438
0.00926202
0.00928029
0.0092986
0.00931694
0.00933531
0.00935371
0.00937211
0.00939054
0.00940896
0.00942739
0.00944581
0.00946423
0.00948263
0.00950101
0.00951938
0.00953771
0.00955601
0.00957428
0.00959251
0.00961069
0.00962882
0.00964691
0.00966493
0.0096829
0.0097008
0.00971864
0.00973641
0.0097541
0.00977172
0.00978925
0.0098067
0.00982407
0.00984134
0.00985852
0.00987561
0.0098926
0.00990948
0.00992626
0.00994294
0.00995951
0.00997596
0.0099923
0.0100085
0.0100246
0.0100406
0.0100565
0.0100722
0.0100878
0.0101033
0.0101186
0.0101338
0.0101489
0.0101639
0.0101787
0.0101933
0.0102078
0.0102222
0.0102364
0.0102505
0.0102644
0.0102782
0.0102918
0.0103053
0.0103186
0.0103318
0.0103448
0.0103576
0.0103703
0.0103828
0.0103952
0.0104074
0.0104194
0.0104313
0.010443
0.0104545
0.0104659
0.0104771
0.0104881
0.0104989
0.0105096
0.0105201
0.0105304
0.0105405
0.0105505
0.0105603
0.0105699
0.0105793
0.0105885
0.0105976
0.0106065
0.0106152
0.0106237
0.010632
0.0106402
0.0106481
0.0106559
0.0106635
0.0106709
0.0106781
0.0106851
0.0106919
0.0106985
0.010705
0.0107112
0.0107173
0.0107231
0.0107288
0.0107342
0.0107395
0.0107446
0.0107495
0.0107542
0.0107586
0.0107629
0.010767
0.0107709
0.0107746
0.0107781
0.0107813
0.0107844
0.0107873
0.01079
0.0107925
0.0107947
0.0107968
0.0107986
0.0108003
0.0108017
0.010803
0.010804
0.0108048
0.0108054
0.0108058
0.010806
0.010806
0.0108058
0.0108054
0.0108047
0.0108039
0.0108028
0.0108015
0.0108
0.0107983
0.0107964
0.0107942
0.0107919
0.0107893
0.0107865
0.0107835
0.0107803
0.0107768
0.0107731
0.0107693
0.0107652
0.0107608
0.0107563
0.0107515
0.0107466
0.0107413
0.0107359
0.0107303
0.0107244
0.0107183
0.010712
0.0107054
0.0106986
0.0106916
0.0106844
0.0106769
0.0106692
0.0106613
0.0106532
0.0106448
0.0106362
0.0106274
0.0106183
0.010609
0.0105995
0.0105897
0.0105797
0.0105695
0.010559
0.0105483
0.0105374
0.0105262
0.0105148
0.0105031
0.0104913
0.0104791
0.0104668
0.0104542
0.0104413
0.0104283
0.0104149
0.0104014
0.0103876
0.0103735
0.0103592
0.0103447
0.0103299
0.0103149
0.0102996
0.0102841
0.0102683
0.0102523
0.010236
0.0102195
0.0102028
0.0101857
0.0101685
0.010151
0.0101332
0.0101152
0.0100969
0.0100784
0.0100596
0.0100406
0.0100213
0.0100018
0.00998196
0.0099619
0.00994159
0.00992101
0.00990018
0.00987909
0.00985774
0.00983613
0.00981425
0.00979212
0.00976972
0.00974706
0.00972413
0.00970094
0.00967749
0.00965377
0.00962978
0.00960553
0.00958101
0.00955622
0.00953116
0.00950583
0.00948024
0.00945437
0.00942823
0.00940182
0.00937514
0.00934819
0.00932096
0.00929345
0.00926568
0.00923763
0.0092093
0.00918069
0.00915181
0.00912265
0.00909321
0.0090635
0.0090335
0.00900323
0.00897267
0.00894184
0.00891072
0.00887932
0.00884763
0.00881567
0.00878342
0.00875088
0.00871806
0.00868495
0.00865156
0.00861788
0.00858392
0.00854966
0.00851512
0.00848029
0.00844517
0.00840976
0.00837406
0.00833807
0.00830179
0.00826522
0.00822835
0.00819119
0.00815374
0.00811599
0.00807795
0.00803961
0.00800098
0.00796205
0.00792283
0.00788331
0.00784349
0.00780338
0.00776297
0.00772226
0.00768125
0.00763994
0.00759833
0.00755642
0.00751421
0.0074717
0.00742889
0.00738578
0.00734236
0.00729864
0.00725462
0.0072103
0.00716568
0.00712075
0.00707551
0.00702997
0.00698413
0.00693798
0.00689153
0.00684478
0.00679771
0.00675034
0.00670267
0.00665469
0.0066064
0.0065578
0.0065089
0.00645969
0.00641018
0.00636036
0.00631022
0.00625979
0.00620904
0.00615799
0.00610662
0.00605495
0.00600298
0.00595069
0.0058981
0.00584519
0.00579198
0.00573846
0.00568464
0.0056305
0.00557606
0.00552131
0.00546625
0.00541088
0.00535521
0.00529923
0.00524294
0.00518635
0.00512945
0.00507224
0.00501473
0.00495691
0.00489878
0.00484035
0.00478162
0.00472258
0.00466324
0.0046036
0.00454365
0.0044834
0.00442285
0.004362
0.00430085
0.0042394
0.00417765
0.0041156
0.00405326
0.00399062
0.00392769
0.00386447
0.00380095
0.00373714
0.00367305
0.00360866
0.00354399
0.00347903
0.00341379
0.00334827
0.00328247
0.0032164
0.00315005
0.00308343
0.00301654
0.00294938
0.00288196
0.00281428
0.00274634
0.00267815
0.00260971
0.00254103
0.00247211
0.00240296
0.00233358
0.00226397
0.00219416
0.00212414
0.00205392
0.00198351
0.00191292
0.00184216
0.00177125
0.0017002
0.00162903
0.00155774
0.00148637
0.00141493
0.00134345
0.00127196
0.00120049
0.00112907
0.00105776
0.000986607
0.000915664
0.000845005
0.000774718
0.000704904
0.000635691
0.000567236
0.000499736
0.000433444
0.00036869
0.000305914
0.000245718
0.000188937
0.000136748
9.07806e-05
5.31175e-05
2.58169e-05
9.58828e-06
2.41961e-06
3.42604e-07
2.18229e-08
6.06359e-09
)
;

boundaryField
{
    top_wall
    {
        type            nutLowReWallFunction;
        value           uniform 0;
    }
    inlet
    {
        type            cyclic;
    }
    bot_wall
    {
        type            nutLowReWallFunction;
        value           uniform 0;
    }
    outlet
    {
        type            cyclic;
    }
    frontAndBack
    {
        type            empty;
    }
}


// ************************************************************************* //
