/*--------------------------------*- C++ -*----------------------------------*\
| =========                 |                                                 |
| \\      /  F ield         | OpenFOAM: The Open Source CFD Toolbox           |
|  \\    /   O peration     | Version:  2406                                  |
|   \\  /    A nd           | Website:  www.openfoam.com                      |
|    \\/     M anipulation  |                                                 |
\*---------------------------------------------------------------------------*/
FoamFile
{
    version     2.0;
    format      ascii;
    arch        "LSB;label=32;scalar=64";
    class       volScalarField;
    location    "17.925";
    object      omega;
}
// * * * * * * * * * * * * * * * * * * * * * * * * * * * * * * * * * * * * * //

dimensions      [0 0 -1 0 0 0 0];

internalField   nonuniform List<scalar> 
1000
(
64000.2
11248.1
3908.65
1937.6
1191.86
841.382
646.141
521.734
434.817
370.5
321.116
282.193
250.881
225.261
203.991
186.105
170.892
157.824
146.494
136.593
127.876
120.15
113.262
107.086
101.52
96.4824
91.9022
87.7218
83.8924
80.3726
77.1274
74.1265
71.3439
68.7573
66.3469
64.0959
61.9892
60.0135
58.1574
56.4105
54.7635
53.2083
51.7376
50.3447
49.0238
47.7695
46.577
45.4419
44.3602
43.3282
42.3428
41.4007
40.4994
39.6362
38.8088
38.015
37.2529
36.5207
35.8166
35.139
34.4866
33.8579
33.2517
32.6668
32.1022
31.5568
31.0296
30.5199
30.0266
29.5491
29.0866
28.6385
28.204
27.7826
27.3737
26.9768
26.5912
26.2167
25.8526
25.4986
25.1543
24.8193
24.4931
24.1755
23.8662
23.5647
23.2709
22.9844
22.705
22.4324
22.1663
21.9066
21.653
21.4052
21.1632
20.9267
20.6955
20.4694
20.2483
20.032
19.8203
19.6132
19.4104
19.2119
19.0174
18.8269
18.6403
18.4574
18.2781
18.1023
17.9299
17.7609
17.595
17.4323
17.2727
17.1159
16.9621
16.811
16.6627
16.5169
16.3738
16.2332
16.095
15.9591
15.8256
15.6944
15.5653
15.4383
15.3135
15.1907
15.0698
14.9509
14.8339
14.7187
14.6053
14.4937
14.3837
14.2755
14.1688
14.0638
13.9603
13.8584
13.7579
13.6589
13.5613
13.4651
13.3702
13.2767
13.1844
13.0935
13.0038
12.9153
12.8279
12.7418
12.6568
12.5729
12.4901
12.4084
12.3277
12.248
12.1694
12.0917
12.015
11.9392
11.8644
11.7905
11.7175
11.6453
11.574
11.5036
11.4339
11.3651
11.2971
11.2298
11.1633
11.0976
11.0325
10.9683
10.9047
10.8418
10.7796
10.718
10.6572
10.5969
10.5373
10.4783
10.42
10.3622
10.305
10.2484
10.1924
10.1369
10.082
10.0277
9.97381
9.92049
9.86768
9.81538
9.76357
9.71225
9.66141
9.61104
9.56114
9.51169
9.4627
9.41414
9.36602
9.31832
9.27105
9.22419
9.17774
9.13169
9.08603
9.04076
8.99588
8.95136
8.90722
8.86345
8.82003
8.77697
8.73426
8.69188
8.64985
8.60815
8.56677
8.52572
8.48499
8.44456
8.40445
8.36464
8.32513
8.28592
8.24699
8.20835
8.17
8.13192
8.09412
8.05658
8.01932
7.98231
7.94557
7.90908
7.87284
7.83685
7.80111
7.7656
7.73034
7.69531
7.66051
7.62594
7.5916
7.55747
7.52357
7.48988
7.45641
7.42315
7.39009
7.35724
7.3246
7.29215
7.2599
7.22785
7.19599
7.16431
7.13283
7.10153
7.07041
7.03948
7.00872
6.97814
6.94773
6.91749
6.88742
6.85752
6.82779
6.79822
6.76881
6.73956
6.71047
6.68154
6.65276
6.62413
6.59565
6.56732
6.53914
6.5111
6.48321
6.45546
6.42785
6.40038
6.37305
6.34586
6.3188
6.29187
6.26508
6.23841
6.21188
6.18547
6.15919
6.13303
6.107
6.08109
6.05531
6.02964
6.00409
5.97867
5.95336
5.92816
5.90308
5.87811
5.85326
5.82852
5.80389
5.77937
5.75496
5.73066
5.70646
5.68237
5.65839
5.63451
5.61074
5.58706
5.5635
5.54003
5.51666
5.4934
5.47023
5.44716
5.42419
5.40132
5.37855
5.35587
5.33329
5.3108
5.28841
5.26611
5.2439
5.22179
5.19977
5.17785
5.15601
5.13427
5.11262
5.09106
5.06959
5.04821
5.02692
5.00572
4.9846
4.96358
4.94265
4.9218
4.90104
4.88037
4.85979
4.8393
4.81889
4.79857
4.77834
4.7582
4.73814
4.71817
4.69829
4.67849
4.65878
4.63916
4.61963
4.60018
4.58082
4.56155
4.54237
4.52327
4.50426
4.48534
4.46651
4.44776
4.42911
4.41054
4.39207
4.37368
4.35538
4.33717
4.31906
4.30103
4.2831
4.26526
4.24751
4.22985
4.21228
4.19481
4.17743
4.16015
4.14297
4.12587
4.10888
4.09198
4.07518
4.05848
4.04188
4.02537
4.00897
3.99267
3.97647
3.96037
3.94438
3.92849
3.91271
3.89703
3.88146
3.866
3.85065
3.83541
3.82027
3.80525
3.79035
3.77555
3.76088
3.74632
3.73187
3.71755
3.70334
3.68926
3.67529
3.66145
3.64774
3.63415
3.62069
3.60736
3.59415
3.58108
3.56814
3.55534
3.54267
3.53013
3.51774
3.50548
3.49337
3.4814
3.46957
3.45789
3.44636
3.43498
3.42374
3.41266
3.40173
3.39096
3.38034
3.36989
3.35959
3.34946
3.33948
3.32968
3.32004
3.31057
3.30127
3.29214
3.28318
3.2744
3.26579
3.25737
3.24912
3.24106
3.23318
3.22548
3.21797
3.21065
3.20351
3.19657
3.18982
3.18327
3.17691
3.17074
3.16478
3.15902
3.15345
3.14809
3.14293
3.13798
3.13323
3.12869
3.12436
3.12024
3.11633
3.11263
3.10914
3.10587
3.10281
3.09997
3.09734
3.09493
3.09273
3.09076
3.089
3.08746
3.08614
3.08504
3.08416
3.08349
3.08305
3.08283
3.08283
3.08305
3.0835
3.08416
3.08504
3.08614
3.08746
3.089
3.09076
3.09274
3.09493
3.09734
3.09997
3.10281
3.10587
3.10915
3.11263
3.11633
3.12025
3.12437
3.1287
3.13324
3.13798
3.14294
3.1481
3.15346
3.15902
3.16479
3.17075
3.17691
3.18327
3.18983
3.19658
3.20352
3.21065
3.21798
3.22549
3.23318
3.24106
3.24913
3.25737
3.2658
3.27441
3.28319
3.29214
3.30127
3.31057
3.32004
3.32968
3.33949
3.34946
3.3596
3.36989
3.38035
3.39097
3.40174
3.41267
3.42375
3.43498
3.44637
3.4579
3.46958
3.48141
3.49338
3.50549
3.51775
3.53014
3.54268
3.55534
3.56815
3.58109
3.59416
3.60736
3.6207
3.63416
3.64775
3.66146
3.6753
3.68926
3.70335
3.71755
3.73188
3.74632
3.76089
3.77556
3.79036
3.80526
3.82028
3.83542
3.85066
3.86601
3.88147
3.89704
3.91272
3.9285
3.94439
3.96038
3.97648
3.99268
4.00898
4.02538
4.04189
4.05849
4.07519
4.09199
4.10889
4.12589
4.14298
4.16016
4.17745
4.19482
4.21229
4.22986
4.24752
4.26527
4.28311
4.30104
4.31907
4.33719
4.35539
4.37369
4.39208
4.41056
4.42912
4.44778
4.46652
4.48535
4.50427
4.52328
4.54238
4.56156
4.58083
4.60019
4.61964
4.63917
4.6588
4.6785
4.6983
4.71818
4.73815
4.75821
4.77835
4.79859
4.8189
4.83931
4.8598
4.88039
4.90106
4.92181
4.94266
4.96359
4.98462
5.00573
5.02693
5.04822
5.0696
5.09107
5.11263
5.13428
5.15603
5.17786
5.19979
5.2218
5.24392
5.26612
5.28842
5.31081
5.3333
5.35588
5.37856
5.40133
5.4242
5.44717
5.47024
5.49341
5.51667
5.54004
5.56351
5.58708
5.61075
5.63452
5.6584
5.68238
5.70647
5.73067
5.75497
5.77938
5.8039
5.82853
5.85327
5.87813
5.90309
5.92817
5.95337
5.97868
6.00411
6.02965
6.05532
6.0811
6.10701
6.13304
6.1592
6.18548
6.21189
6.23842
6.26509
6.29188
6.31881
6.34587
6.37306
6.4004
6.42787
6.45547
6.48322
6.51112
6.53915
6.56733
6.59566
6.62414
6.65277
6.68155
6.71048
6.73957
6.76882
6.79823
6.8278
6.85754
6.88743
6.9175
6.94774
6.97815
7.00873
7.03949
7.07042
7.10154
7.13284
7.16432
7.196
7.22786
7.25991
7.29216
7.32461
7.35726
7.3901
7.42316
7.45642
7.48989
7.52358
7.55748
7.59161
7.62595
7.66052
7.69532
7.73035
7.76562
7.80112
7.83686
7.87285
7.90909
7.94558
7.98233
8.01933
8.0566
8.09413
8.13193
8.17001
8.20837
8.247
8.28593
8.32514
8.36465
8.40446
8.44458
8.485
8.52573
8.56678
8.60816
8.64986
8.69189
8.73427
8.77698
8.82004
8.86346
8.90724
8.95138
8.99589
9.04077
9.08604
9.1317
9.17775
9.2242
9.27106
9.31833
9.36603
9.41415
9.46271
9.5117
9.56115
9.61105
9.66142
9.71226
9.76358
9.81539
9.86769
9.9205
9.97382
10.0277
10.082
10.137
10.1924
10.2485
10.305
10.3622
10.42
10.4784
10.5373
10.5969
10.6572
10.718
10.7796
10.8418
10.9047
10.9683
11.0326
11.0976
11.1633
11.2298
11.2971
11.3651
11.4339
11.5036
11.574
11.6453
11.7175
11.7905
11.8644
11.9393
12.015
12.0917
12.1694
12.248
12.3277
12.4084
12.4901
12.5729
12.6568
12.7418
12.828
12.9153
13.0038
13.0935
13.1845
13.2767
13.3702
13.4651
13.5613
13.6589
13.7579
13.8584
13.9603
14.0638
14.1689
14.2755
14.3837
14.4937
14.6053
14.7187
14.8339
14.9509
15.0698
15.1907
15.3135
15.4384
15.5653
15.6944
15.8256
15.9592
16.095
16.2332
16.3738
16.517
16.6627
16.811
16.9621
17.1159
17.2727
17.4323
17.595
17.7609
17.9299
18.1023
18.2781
18.4574
18.6403
18.8269
19.0174
19.2119
19.4104
19.6132
19.8204
20.032
20.2483
20.4694
20.6955
20.9267
21.1632
21.4052
21.653
21.9066
22.1663
22.4324
22.705
22.9844
23.2709
23.5647
23.8662
24.1755
24.4931
24.8193
25.1543
25.4986
25.8526
26.2167
26.5912
26.9768
27.3737
27.7826
28.204
28.6385
29.0866
29.5491
30.0266
30.5199
31.0296
31.5568
32.1022
32.6668
33.2517
33.8579
34.4866
35.139
35.8166
36.5207
37.2529
38.015
38.8088
39.6362
40.4994
41.4007
42.3427
43.3282
44.3602
45.4419
46.577
47.7695
49.0238
50.3447
51.7376
53.2083
54.7635
56.4105
58.1574
60.0135
61.9891
64.0959
66.3469
68.7573
71.3439
74.1265
77.1274
80.3726
83.8923
87.7218
91.9022
96.4824
101.52
107.086
113.262
120.15
127.876
136.593
146.494
157.824
170.892
186.105
203.991
225.261
250.881
282.193
321.116
370.5
434.817
521.734
646.141
841.382
1191.86
1937.6
3908.65
11248.1
64000.2
)
;

boundaryField
{
    top_wall
    {
        type            omegaWallFunction;
        blending        binomial;
        n               2;
        value           uniform 64000.2;
    }
    inlet
    {
        type            cyclic;
    }
    bot_wall
    {
        type            omegaWallFunction;
        blending        binomial;
        n               2;
        value           uniform 64000.2;
    }
    outlet
    {
        type            cyclic;
    }
    frontAndBack
    {
        type            empty;
    }
}


// ************************************************************************* //
