/*--------------------------------*- C++ -*----------------------------------*\
| =========                 |                                                 |
| \\      /  F ield         | OpenFOAM: The Open Source CFD Toolbox           |
|  \\    /   O peration     | Version:  2406                                  |
|   \\  /    A nd           | Website:  www.openfoam.com                      |
|    \\/     M anipulation  |                                                 |
\*---------------------------------------------------------------------------*/
FoamFile
{
    version     2.0;
    format      ascii;
    arch        "LSB;label=32;scalar=64";
    class       volScalarField;
    location    "17.925";
    object      p;
}
// * * * * * * * * * * * * * * * * * * * * * * * * * * * * * * * * * * * * * //

dimensions      [0 2 -2 0 0 0 0];

internalField   nonuniform List<scalar> 
1000
(
-2.84655e-19
-1.45051e-18
-1.7282e-18
-1.73398e-18
-1.73398e-18
-1.76543e-18
-1.79996e-18
-1.77652e-18
-1.69569e-18
-1.86152e-18
-2.02824e-18
-2.04181e-18
-2.1644e-18
-2.21583e-18
-2.444e-18
-2.31846e-18
-2.31846e-18
-2.41778e-18
-2.52505e-18
-2.64031e-18
-2.76363e-18
-2.89504e-18
-3.03456e-18
-3.18221e-18
-3.33802e-18
-3.50199e-18
-3.67412e-18
-3.85441e-18
-4.04286e-18
-4.23947e-18
-4.44422e-18
-4.65711e-18
-4.87811e-18
-5.10722e-18
-5.34442e-18
-5.58968e-18
-5.843e-18
-6.10434e-18
-6.37369e-18
-6.65102e-18
-6.93631e-18
-7.22953e-18
-7.53066e-18
-7.83967e-18
-8.15653e-18
-8.48123e-18
-8.81372e-18
-9.15398e-18
-9.50198e-18
-9.85769e-18
-1.02211e-17
-1.05921e-17
-1.09708e-17
-1.1357e-17
-1.17509e-17
-1.21522e-17
-1.2561e-17
-1.29773e-17
-1.3401e-17
-1.38322e-17
-1.42707e-17
-1.47165e-17
-1.51696e-17
-1.563e-17
-1.60976e-17
-1.65724e-17
-1.70544e-17
-1.75436e-17
-1.80398e-17
-1.85431e-17
-1.90534e-17
-1.95707e-17
-2.0095e-17
-2.06262e-17
-2.11643e-17
-2.17092e-17
-2.2261e-17
-2.28196e-17
-2.33849e-17
-2.3957e-17
-2.45357e-17
-2.51211e-17
-2.57131e-17
-2.63117e-17
-2.69168e-17
-2.75285e-17
-2.81466e-17
-2.87711e-17
-2.94021e-17
-3.00395e-17
-3.06831e-17
-3.13331e-17
-3.19894e-17
-3.26518e-17
-3.33205e-17
-3.39954e-17
-3.46763e-17
-3.53634e-17
-3.60565e-17
-3.67556e-17
-3.74607e-17
-3.81718e-17
-3.88888e-17
-3.96116e-17
-4.03403e-17
-4.10748e-17
-4.18151e-17
-4.25611e-17
-4.33129e-17
-4.40703e-17
-4.48333e-17
-4.56019e-17
-4.63761e-17
-4.71558e-17
-4.79411e-17
-4.87317e-17
-4.95278e-17
-5.03293e-17
-5.11362e-17
-5.19483e-17
-5.27658e-17
-5.35884e-17
-5.44164e-17
-5.52494e-17
-5.60877e-17
-5.6931e-17
-5.77794e-17
-5.86329e-17
-5.94914e-17
-6.03548e-17
-6.12232e-17
-6.20964e-17
-6.29746e-17
-6.38576e-17
-6.47453e-17
-6.56379e-17
-6.65352e-17
-6.74371e-17
-6.83438e-17
-6.78882e-17
-6.65144e-17
-6.92756e-17
-7.11255e-17
-7.2055e-17
-7.29889e-17
-7.39272e-17
-7.48699e-17
-7.5817e-17
-7.67684e-17
-7.77241e-17
-7.86841e-17
-7.96482e-17
-8.06166e-17
-8.15891e-17
-8.25658e-17
-8.35465e-17
-8.45313e-17
-8.55201e-17
-8.65129e-17
-8.75097e-17
-8.85104e-17
-8.9515e-17
-9.05234e-17
-9.15357e-17
-9.25518e-17
-9.35716e-17
-9.45952e-17
-9.56224e-17
-9.66533e-17
-9.76879e-17
-1.00802e-16
-1.06532e-16
-1.02873e-16
-1.01825e-16
-1.02877e-16
-1.03933e-16
-1.04992e-16
-1.06054e-16
-1.0712e-16
-1.08189e-16
-1.09261e-16
-1.10337e-16
-1.11416e-16
-1.12498e-16
-1.13583e-16
-1.14671e-16
-1.15763e-16
-1.16857e-16
-1.17955e-16
-1.19055e-16
-1.20159e-16
-1.21265e-16
-1.22374e-16
-1.23487e-16
-1.24602e-16
-1.25719e-16
-1.2684e-16
-1.27963e-16
-1.29089e-16
-1.29654e-16
-1.3022e-16
-1.30787e-16
-1.33628e-16
-1.38185e-16
-1.3476e-16
-1.33044e-16
-1.33617e-16
-1.34192e-16
-1.34767e-16
-1.34767e-16
-1.34767e-16
-1.34767e-16
-1.34767e-16
-1.34767e-16
-1.34767e-16
-1.34767e-16
-1.34767e-16
-1.34767e-16
-1.34767e-16
-1.34767e-16
-1.34767e-16
-1.34767e-16
-1.34767e-16
-1.34767e-16
-1.34767e-16
-1.34767e-16
-1.34767e-16
-1.34767e-16
-1.34767e-16
-1.34767e-16
-1.34767e-16
-1.34767e-16
-1.34767e-16
-1.34767e-16
-1.34767e-16
-1.34767e-16
-1.34767e-16
-1.34767e-16
-1.34767e-16
-1.34767e-16
-1.34767e-16
-1.34767e-16
-1.34767e-16
-1.34767e-16
-1.34767e-16
-1.34767e-16
-1.34767e-16
-1.34767e-16
-1.34767e-16
-1.34767e-16
-1.34767e-16
-1.34767e-16
-1.34767e-16
-1.34767e-16
-1.34767e-16
-1.34767e-16
-1.34767e-16
-1.34767e-16
-1.34767e-16
-1.34767e-16
-1.34767e-16
-1.34767e-16
-1.34767e-16
-1.34767e-16
-1.34767e-16
-1.34767e-16
-1.34767e-16
-1.34767e-16
-1.34767e-16
-1.34767e-16
-1.34767e-16
-1.34767e-16
-1.34767e-16
-1.34767e-16
-1.34767e-16
-1.34767e-16
-1.34767e-16
-1.34767e-16
-1.34767e-16
-1.34767e-16
-1.34767e-16
-1.34767e-16
-1.34767e-16
-1.34767e-16
-1.34767e-16
-1.34767e-16
-1.34767e-16
-1.34767e-16
-1.34767e-16
-1.34767e-16
-1.34767e-16
-1.34767e-16
-1.34767e-16
-1.34767e-16
-1.34767e-16
-1.34767e-16
-1.34767e-16
-1.34767e-16
-1.34767e-16
-1.34767e-16
-1.34767e-16
-1.34767e-16
-1.34767e-16
-1.34767e-16
-1.34767e-16
-1.34767e-16
-1.34767e-16
-1.34767e-16
-1.34767e-16
-1.34767e-16
-1.34767e-16
-1.34767e-16
-1.34767e-16
-1.34767e-16
-1.34767e-16
-1.34767e-16
-1.34767e-16
-1.34767e-16
-1.34767e-16
-1.34767e-16
-1.34767e-16
-1.34767e-16
-1.34767e-16
-1.34767e-16
-1.34767e-16
-1.34768e-16
-1.34768e-16
-1.34768e-16
-1.34768e-16
-1.34768e-16
-1.34768e-16
-1.34768e-16
-1.34768e-16
-1.34768e-16
-1.34768e-16
-1.34768e-16
-1.34768e-16
-1.34768e-16
-1.34768e-16
-1.34768e-16
-1.34768e-16
-1.34768e-16
-1.34768e-16
-1.34768e-16
-1.34768e-16
-1.34768e-16
-1.34768e-16
-1.34768e-16
-1.34768e-16
-1.34768e-16
-1.34768e-16
-1.34768e-16
-1.34768e-16
-1.34768e-16
-1.34768e-16
-1.34768e-16
-1.34768e-16
-1.34768e-16
-1.34768e-16
-1.34768e-16
-1.34768e-16
-1.34768e-16
-1.34768e-16
-1.34768e-16
-1.34768e-16
-1.34768e-16
-1.34768e-16
-1.34768e-16
-1.34768e-16
-1.34768e-16
-1.34768e-16
-1.34768e-16
-1.34768e-16
-1.34768e-16
-1.34768e-16
-1.34768e-16
-1.34768e-16
-1.34768e-16
-1.34768e-16
-1.34768e-16
-1.34768e-16
-1.34768e-16
-1.34768e-16
-1.34768e-16
-1.34768e-16
-1.34768e-16
-1.34768e-16
-1.34768e-16
-1.34768e-16
-1.34768e-16
-1.34768e-16
-1.34768e-16
-1.34768e-16
-1.34768e-16
-1.34768e-16
-1.34768e-16
-1.34768e-16
-1.34768e-16
-1.34768e-16
-1.34768e-16
-1.34768e-16
-1.34768e-16
-1.34768e-16
-1.34768e-16
-1.34768e-16
-1.34768e-16
-1.34768e-16
-1.34768e-16
-1.34768e-16
-1.34768e-16
-1.34768e-16
-1.34768e-16
-1.34768e-16
-1.34768e-16
-1.34768e-16
-1.34768e-16
-1.34768e-16
-1.34768e-16
-1.34768e-16
-1.34768e-16
-1.34768e-16
-1.34768e-16
-1.34768e-16
-1.34768e-16
-1.34768e-16
-1.34768e-16
-1.34768e-16
-1.34768e-16
-1.34768e-16
-1.34768e-16
-1.34768e-16
-1.34768e-16
-1.34768e-16
-1.34768e-16
-1.34768e-16
-1.34768e-16
-1.34768e-16
-1.34768e-16
-1.34768e-16
-1.34768e-16
-1.34768e-16
-1.34768e-16
-1.34768e-16
-1.34768e-16
-1.34768e-16
-1.34768e-16
-1.34768e-16
-1.34768e-16
-1.34768e-16
-1.34768e-16
-1.34768e-16
-1.34768e-16
-1.34768e-16
-1.34768e-16
-1.34768e-16
-1.34768e-16
-1.34768e-16
-1.34768e-16
-1.34768e-16
-1.34768e-16
-1.34768e-16
-1.34768e-16
-1.34768e-16
-1.34768e-16
-1.34768e-16
-1.34768e-16
-1.34768e-16
-1.34768e-16
-1.34768e-16
-1.34768e-16
-1.34768e-16
-1.34768e-16
-1.34768e-16
-1.34768e-16
-1.34768e-16
-1.34768e-16
-1.34768e-16
-1.34768e-16
-1.34768e-16
-1.34768e-16
-1.34768e-16
-1.34768e-16
-1.34768e-16
-1.34768e-16
-1.34768e-16
-1.34768e-16
-1.34768e-16
-1.34768e-16
-1.34768e-16
-1.34768e-16
-1.34768e-16
-1.34768e-16
-1.34768e-16
-1.34768e-16
-1.34768e-16
-1.34768e-16
-1.34768e-16
-1.34768e-16
-1.34768e-16
-1.34768e-16
-1.34768e-16
-1.34768e-16
-1.34768e-16
-1.34768e-16
-1.34768e-16
-1.34768e-16
-1.34768e-16
-1.34768e-16
-1.34768e-16
-1.34768e-16
-1.34768e-16
-1.34768e-16
-1.34768e-16
-1.34768e-16
-1.34768e-16
-1.34768e-16
-1.34768e-16
-1.34768e-16
-1.34768e-16
-1.34768e-16
-1.34768e-16
-1.34768e-16
-1.34768e-16
-1.34768e-16
-1.34768e-16
-1.34768e-16
-1.34768e-16
-1.34768e-16
-1.34768e-16
-1.34768e-16
-1.34768e-16
-1.34768e-16
-1.34768e-16
-1.34768e-16
-1.34768e-16
-1.34768e-16
-1.34768e-16
-1.34768e-16
-1.34768e-16
-1.34768e-16
-1.34768e-16
-1.34768e-16
-1.34768e-16
-1.34768e-16
-1.34768e-16
-1.34768e-16
-1.34768e-16
-1.34768e-16
-1.34768e-16
-1.34768e-16
-1.34768e-16
-1.34768e-16
-1.34768e-16
-1.34768e-16
-1.34768e-16
-1.34768e-16
-1.34768e-16
-1.34768e-16
-1.34768e-16
-1.34768e-16
-1.34768e-16
-1.34768e-16
-1.34768e-16
-1.34768e-16
-1.34768e-16
-1.34768e-16
-1.34768e-16
-1.34768e-16
-1.34768e-16
-1.34768e-16
-1.34768e-16
-1.34768e-16
-1.34768e-16
-1.34768e-16
-1.34768e-16
-1.34768e-16
-1.34768e-16
-1.34768e-16
-1.34768e-16
-1.34768e-16
-1.34768e-16
-1.34768e-16
-1.34768e-16
-1.34768e-16
-1.34768e-16
-1.34768e-16
-1.34768e-16
-1.34768e-16
-1.34768e-16
-1.34768e-16
-1.34768e-16
-1.34768e-16
-1.34768e-16
-1.34768e-16
-1.34768e-16
-1.34768e-16
-1.34768e-16
-1.34768e-16
-1.34768e-16
-1.34768e-16
-1.34768e-16
-1.34768e-16
-1.34768e-16
-1.34768e-16
-1.34768e-16
-1.34768e-16
-1.34768e-16
-1.34768e-16
-1.34768e-16
-1.34768e-16
-1.34768e-16
-1.34768e-16
-1.34768e-16
-1.34768e-16
-1.34768e-16
-1.34768e-16
-1.34768e-16
-1.34768e-16
-1.34768e-16
-1.34768e-16
-1.34768e-16
-1.34768e-16
-1.34768e-16
-1.34768e-16
-1.34768e-16
-1.34768e-16
-1.34768e-16
-1.34768e-16
-1.34768e-16
-1.34768e-16
-1.34768e-16
-1.34768e-16
-1.34768e-16
-1.34768e-16
-1.34768e-16
-1.34768e-16
-1.34768e-16
-1.34768e-16
-1.34768e-16
-1.34768e-16
-1.34768e-16
-1.34768e-16
-1.34768e-16
-1.34768e-16
-1.34768e-16
-1.34768e-16
-1.34768e-16
-1.34768e-16
-1.34768e-16
-1.34768e-16
-1.34768e-16
-1.34768e-16
-1.34768e-16
-1.34768e-16
-1.34768e-16
-1.34768e-16
-1.34768e-16
-1.34768e-16
-1.34768e-16
-1.34768e-16
-1.34768e-16
-1.34768e-16
-1.34768e-16
-1.34768e-16
-1.34768e-16
-1.34768e-16
-1.34768e-16
-1.34768e-16
-1.34768e-16
-1.34768e-16
-1.34768e-16
-1.34768e-16
-1.34768e-16
-1.34768e-16
-1.34768e-16
-1.34768e-16
-1.34768e-16
-1.34768e-16
-1.34768e-16
-1.34768e-16
-1.34768e-16
-1.34768e-16
-1.34768e-16
-1.34768e-16
-1.34768e-16
-1.34768e-16
-1.34768e-16
-1.34768e-16
-1.34768e-16
-1.34768e-16
-1.34768e-16
-1.34768e-16
-1.34768e-16
-1.34768e-16
-1.34768e-16
-1.34768e-16
-1.34768e-16
-1.34768e-16
-1.34768e-16
-1.34768e-16
-1.34768e-16
-1.34768e-16
-1.34768e-16
-1.34768e-16
-1.34768e-16
-1.34768e-16
-1.34768e-16
-1.34768e-16
-1.34768e-16
-1.34768e-16
-1.34768e-16
-1.34768e-16
-1.34768e-16
-1.34768e-16
-1.34768e-16
-1.34768e-16
-1.34768e-16
-1.34768e-16
-1.34768e-16
-1.34768e-16
-1.34768e-16
-1.34768e-16
-1.34768e-16
-1.34768e-16
-1.34768e-16
-1.34768e-16
-1.34768e-16
-1.34768e-16
-1.34768e-16
-1.34768e-16
-1.34768e-16
-1.34768e-16
-1.34768e-16
-1.34768e-16
-1.34768e-16
-1.34768e-16
-1.34768e-16
-1.34768e-16
-1.34768e-16
-1.34768e-16
-1.34768e-16
-1.34768e-16
-1.34768e-16
-1.34768e-16
-1.34768e-16
-1.34768e-16
-1.34768e-16
-1.34768e-16
-1.34768e-16
-1.34768e-16
-1.34768e-16
-1.34768e-16
-1.34768e-16
-1.34768e-16
-1.34768e-16
-1.34768e-16
-1.34768e-16
-1.34768e-16
-1.34768e-16
-1.34768e-16
-1.34768e-16
-1.34768e-16
-1.34768e-16
-1.34768e-16
-1.34768e-16
-1.34768e-16
-1.34768e-16
-1.34768e-16
-1.34768e-16
-1.34768e-16
-1.34768e-16
-1.34768e-16
-1.34768e-16
-1.34768e-16
-1.34768e-16
-1.34768e-16
-1.34768e-16
-1.34768e-16
-1.34768e-16
-1.34768e-16
-1.34768e-16
-1.34768e-16
-1.34768e-16
-1.34768e-16
-1.34768e-16
-1.34768e-16
-1.34768e-16
-1.34768e-16
-1.34768e-16
-1.34768e-16
-1.34768e-16
-1.34768e-16
-1.34768e-16
-1.34768e-16
-1.34768e-16
-1.34768e-16
-1.34768e-16
-1.34768e-16
-1.34768e-16
-1.34768e-16
-1.34768e-16
-1.34768e-16
-1.34768e-16
-1.34768e-16
-1.34768e-16
-1.34768e-16
-1.34768e-16
-1.34768e-16
-1.34768e-16
-1.34768e-16
-1.34768e-16
-1.34768e-16
-1.34768e-16
-1.34768e-16
-1.34768e-16
-1.34768e-16
-1.34768e-16
-1.34768e-16
-1.34768e-16
-1.34768e-16
-1.34768e-16
-1.34768e-16
-1.34768e-16
-1.34768e-16
-1.34768e-16
-1.34768e-16
-1.34768e-16
-1.34768e-16
-1.34768e-16
-1.34768e-16
-1.34768e-16
-1.34768e-16
-1.34768e-16
-1.34768e-16
-1.34768e-16
-1.34768e-16
-1.34768e-16
-1.34768e-16
-1.34768e-16
-1.34768e-16
-1.34768e-16
-1.34768e-16
-1.34768e-16
-1.34768e-16
-1.34768e-16
-1.34768e-16
-1.34768e-16
-1.34768e-16
-1.34768e-16
-1.34768e-16
-1.34768e-16
-1.34768e-16
-1.34768e-16
-1.34768e-16
-1.34768e-16
-1.34768e-16
-1.34768e-16
-1.34768e-16
-1.34768e-16
-1.34768e-16
-1.34768e-16
-1.34768e-16
-1.34768e-16
-1.34768e-16
-1.34768e-16
-1.34768e-16
-1.34768e-16
-1.34768e-16
-1.34768e-16
-1.34768e-16
-1.34768e-16
-1.34768e-16
-1.34768e-16
-1.34768e-16
-1.34768e-16
-1.34768e-16
-1.34768e-16
-1.34768e-16
-1.34768e-16
-1.34768e-16
-1.34768e-16
-1.34768e-16
-1.34768e-16
-1.34768e-16
-1.34768e-16
-1.34768e-16
-1.34768e-16
-1.34768e-16
-1.34768e-16
-1.34768e-16
-1.34768e-16
-1.34768e-16
-1.34768e-16
-1.34768e-16
-1.34768e-16
-1.34768e-16
-1.34768e-16
-1.34768e-16
-1.34768e-16
-1.34768e-16
-1.34768e-16
-1.34768e-16
-1.34768e-16
-1.34768e-16
-1.34768e-16
-1.34768e-16
-1.34768e-16
-1.34768e-16
-1.34768e-16
-1.34768e-16
-1.34768e-16
-1.34768e-16
-1.34768e-16
-1.34768e-16
-1.34768e-16
-1.34768e-16
-1.34768e-16
-1.34768e-16
-1.34768e-16
-1.34768e-16
-1.34768e-16
-1.34768e-16
-1.34768e-16
-1.34768e-16
-1.34768e-16
-1.34768e-16
-1.34768e-16
-1.34768e-16
-1.34768e-16
-1.34768e-16
-1.34768e-16
-1.34768e-16
-1.34768e-16
-1.34768e-16
-1.34768e-16
-1.34768e-16
-1.34768e-16
-1.34768e-16
-1.34768e-16
-1.34768e-16
-1.34768e-16
-1.34768e-16
-1.34768e-16
-1.34768e-16
-1.34768e-16
-1.34768e-16
-1.34768e-16
-1.34768e-16
-1.34768e-16
-1.34768e-16
-1.34768e-16
-1.34768e-16
-1.34768e-16
-1.34768e-16
-1.34768e-16
-1.34768e-16
-1.34768e-16
-1.34768e-16
-1.34768e-16
-1.34768e-16
-1.34768e-16
-1.34768e-16
-1.34768e-16
-1.34768e-16
-1.34768e-16
-1.34768e-16
-1.34768e-16
-1.34768e-16
-1.34768e-16
-1.34768e-16
-1.34768e-16
-1.34768e-16
-1.34768e-16
-1.34768e-16
-1.34768e-16
-1.34768e-16
-1.34768e-16
-1.34768e-16
-1.34768e-16
-1.34768e-16
-1.34768e-16
-1.34768e-16
-1.34768e-16
-1.34768e-16
-1.34768e-16
-1.34768e-16
-1.34768e-16
-1.34768e-16
-1.34768e-16
-1.34768e-16
-1.34768e-16
-1.34768e-16
-1.34768e-16
-1.34768e-16
-1.34768e-16
-1.34768e-16
-1.34768e-16
-1.34768e-16
-1.34768e-16
-1.34768e-16
)
;

boundaryField
{
    top_wall
    {
        type            zeroGradient;
    }
    inlet
    {
        type            cyclic;
    }
    bot_wall
    {
        type            zeroGradient;
    }
    outlet
    {
        type            cyclic;
    }
    frontAndBack
    {
        type            empty;
    }
}


// ************************************************************************* //
