/*--------------------------------*- C++ -*----------------------------------*\
| =========                 |                                                 |
| \\      /  F ield         | OpenFOAM: The Open Source CFD Toolbox           |
|  \\    /   O peration     | Version:  2406                                  |
|   \\  /    A nd           | Website:  www.openfoam.com                      |
|    \\/     M anipulation  |                                                 |
\*---------------------------------------------------------------------------*/
FoamFile
{
    version     2.0;
    format      ascii;
    arch        "LSB;label=32;scalar=64";
    class       surfaceScalarField;
    location    "17.925";
    object      phi;
}
// * * * * * * * * * * * * * * * * * * * * * * * * * * * * * * * * * * * * * //

dimensions      [0 3 -1 0 0 0 0];

oriented        oriented;

internalField   nonuniform List<scalar> 
999
(
7.07643e-19
7.07571e-19
7.09156e-19
7.10726e-19
7.13174e-19
7.07614e-19
6.95469e-19
7.08904e-19
7.557e-19
7.69121e-19
7.37979e-19
7.43034e-19
7.47531e-19
7.47824e-19
7.18819e-19
7.21826e-19
7.23402e-19
7.2426e-19
7.25714e-19
7.26663e-19
7.27252e-19
7.27589e-19
7.2775e-19
7.27794e-19
7.2776e-19
7.27679e-19
7.2757e-19
7.27447e-19
7.27318e-19
7.27189e-19
7.27064e-19
7.26944e-19
7.2683e-19
7.26723e-19
7.26624e-19
7.26532e-19
7.26448e-19
7.26373e-19
7.26306e-19
7.26249e-19
7.26202e-19
7.26166e-19
7.26141e-19
7.26129e-19
7.2613e-19
7.26144e-19
7.26173e-19
7.26216e-19
7.26275e-19
7.26349e-19
7.26439e-19
7.26545e-19
7.26668e-19
7.26806e-19
7.26961e-19
7.27131e-19
7.27317e-19
7.27519e-19
7.27735e-19
7.27966e-19
7.28211e-19
7.2847e-19
7.28741e-19
7.29024e-19
7.29319e-19
7.29624e-19
7.29938e-19
7.30261e-19
7.30592e-19
7.3093e-19
7.31273e-19
7.3162e-19
7.3197e-19
7.32321e-19
7.32674e-19
7.33025e-19
7.33373e-19
7.33718e-19
7.34057e-19
7.34389e-19
7.34712e-19
7.35026e-19
7.35327e-19
7.35614e-19
7.35887e-19
7.36142e-19
7.36379e-19
7.36596e-19
7.36791e-19
7.36963e-19
7.37111e-19
7.37233e-19
7.37327e-19
7.37394e-19
7.37432e-19
7.3744e-19
7.37418e-19
7.37366e-19
7.37283e-19
7.37169e-19
7.37025e-19
7.36852e-19
7.3665e-19
7.3642e-19
7.36163e-19
7.35881e-19
7.35573e-19
7.35242e-19
7.34887e-19
7.34509e-19
7.34105e-19
7.33673e-19
7.33207e-19
7.32702e-19
7.32146e-19
7.31523e-19
7.30813e-19
7.29988e-19
7.29013e-19
7.27869e-19
7.2653e-19
7.24929e-19
7.22989e-19
7.20645e-19
7.17818e-19
7.14412e-19
7.10341e-19
7.05475e-19
6.99671e-19
6.92826e-19
6.84834e-19
6.75589e-19
6.65007e-19
6.53036e-19
6.39709e-19
6.25154e-19
6.09665e-19
5.95529e-19
5.78584e-19
5.59452e-19
6.14147e-19
5.98292e-19
5.89513e-19
5.82193e-19
5.7384e-19
5.66108e-19
5.59255e-19
5.53399e-19
5.48565e-19
5.44693e-19
5.41688e-19
5.39442e-19
5.37839e-19
5.36772e-19
5.36121e-19
5.35757e-19
5.3557e-19
5.3549e-19
5.35439e-19
5.35332e-19
5.3512e-19
5.34767e-19
5.34228e-19
5.33468e-19
5.32458e-19
5.31178e-19
5.2961e-19
5.27719e-19
5.23106e-19
5.18923e-19
5.16557e-19
4.58627e-19
4.55822e-19
4.50772e-19
4.44745e-19
4.40897e-19
4.36845e-19
4.32595e-19
4.28181e-19
4.23623e-19
4.18941e-19
4.14184e-19
4.09378e-19
4.04555e-19
3.99742e-19
3.94963e-19
3.90231e-19
3.85543e-19
3.80871e-19
3.76153e-19
3.713e-19
3.66162e-19
3.60532e-19
3.54133e-19
3.46624e-19
3.37663e-19
3.26922e-19
3.1469e-19
2.98922e-19
2.85382e-19
2.69511e-19
2.55595e-19
2.47351e-19
2.08054e-19
1.99733e-19
1.85736e-19
1.69681e-19
1.55842e-19
1.39673e-19
1.26955e-19
1.15629e-19
1.05977e-19
9.7666e-20
9.0347e-20
8.36976e-20
7.74397e-20
7.13676e-20
6.53323e-20
5.92447e-20
5.30415e-20
4.66938e-20
4.01973e-20
3.35625e-20
2.68078e-20
1.99572e-20
1.30364e-20
6.06834e-21
-9.07195e-22
-7.8532e-21
-1.47554e-20
-2.16038e-20
-2.83735e-20
-3.50447e-20
-4.16016e-20
-4.8032e-20
-5.43265e-20
-6.04783e-20
-6.64822e-20
-7.23346e-20
-7.80333e-20
-8.35769e-20
-8.89654e-20
-9.41997e-20
-9.92813e-20
-1.04213e-19
-1.08996e-19
-1.13635e-19
-1.18133e-19
-1.22493e-19
-1.26718e-19
-1.30814e-19
-1.34783e-19
-1.3863e-19
-1.42357e-19
-1.4597e-19
-1.49471e-19
-1.52864e-19
-1.56152e-19
-1.59339e-19
-1.62429e-19
-1.65424e-19
-1.68327e-19
-1.71142e-19
-1.73872e-19
-1.76518e-19
-1.79085e-19
-1.81575e-19
-1.83989e-19
-1.86332e-19
-1.88605e-19
-1.9081e-19
-1.92949e-19
-1.95026e-19
-1.9704e-19
-1.98996e-19
-2.00878e-19
-2.0267e-19
-2.04393e-19
-2.06062e-19
-2.07677e-19
-2.0924e-19
-2.10738e-19
-2.12157e-19
-2.13498e-19
-2.14778e-19
-2.16016e-19
-2.17213e-19
-2.18355e-19
-2.19427e-19
-2.20433e-19
-2.21388e-19
-2.22313e-19
-2.2319e-19
-2.24004e-19
-2.24759e-19
-2.25455e-19
-2.2611e-19
-2.26724e-19
-2.27282e-19
-2.27787e-19
-2.28238e-19
-2.28636e-19
-2.28984e-19
-2.29281e-19
-2.29531e-19
-2.29734e-19
-2.29892e-19
-2.30007e-19
-2.30079e-19
-2.30111e-19
-2.30104e-19
-2.3006e-19
-2.29979e-19
-2.29863e-19
-2.29713e-19
-2.2953e-19
-2.29317e-19
-2.29073e-19
-2.288e-19
-2.285e-19
-2.28172e-19
-2.27819e-19
-2.27442e-19
-2.2704e-19
-2.26617e-19
-2.26171e-19
-2.25705e-19
-2.25218e-19
-2.24713e-19
-2.2419e-19
-2.23649e-19
-2.23092e-19
-2.22519e-19
-2.21931e-19
-2.21329e-19
-2.20714e-19
-2.20085e-19
-2.19444e-19
-2.18791e-19
-2.18128e-19
-2.17454e-19
-2.1677e-19
-2.16077e-19
-2.15375e-19
-2.14664e-19
-2.13946e-19
-2.13221e-19
-2.12488e-19
-2.11749e-19
-2.11004e-19
-2.10252e-19
-2.09496e-19
-2.08735e-19
-2.07968e-19
-2.07198e-19
-2.06423e-19
-2.05645e-19
-2.04863e-19
-2.04078e-19
-2.0329e-19
-2.02499e-19
-2.01705e-19
-2.0091e-19
-2.00112e-19
-1.99312e-19
-1.9851e-19
-1.97707e-19
-1.96903e-19
-1.96097e-19
-1.9529e-19
-1.94482e-19
-1.93673e-19
-1.92864e-19
-1.92053e-19
-1.91243e-19
-1.90431e-19
-1.8962e-19
-1.88808e-19
-1.87996e-19
-1.87184e-19
-1.86372e-19
-1.8556e-19
-1.84748e-19
-1.83937e-19
-1.83125e-19
-1.82314e-19
-1.81503e-19
-1.80692e-19
-1.79882e-19
-1.79072e-19
-1.78263e-19
-1.77454e-19
-1.76645e-19
-1.75837e-19
-1.7503e-19
-1.74223e-19
-1.73416e-19
-1.72611e-19
-1.71805e-19
-1.71001e-19
-1.70197e-19
-1.69394e-19
-1.68591e-19
-1.67789e-19
-1.66987e-19
-1.66187e-19
-1.65386e-19
-1.64587e-19
-1.63788e-19
-1.6299e-19
-1.62192e-19
-1.61396e-19
-1.60599e-19
-1.59804e-19
-1.59009e-19
-1.58215e-19
-1.57421e-19
-1.56628e-19
-1.55836e-19
-1.55044e-19
-1.54253e-19
-1.53463e-19
-1.52673e-19
-1.51884e-19
-1.51096e-19
-1.50308e-19
-1.49521e-19
-1.48735e-19
-1.47949e-19
-1.47164e-19
-1.4638e-19
-1.45596e-19
-1.44813e-19
-1.44031e-19
-1.43249e-19
-1.42468e-19
-1.41688e-19
-1.40908e-19
-1.4013e-19
-1.39352e-19
-1.38574e-19
-1.37798e-19
-1.37022e-19
-1.36246e-19
-1.35472e-19
-1.34699e-19
-1.33926e-19
-1.33154e-19
-1.32383e-19
-1.31613e-19
-1.30843e-19
-1.30075e-19
-1.29307e-19
-1.2854e-19
-1.27775e-19
-1.2701e-19
-1.26246e-19
-1.25483e-19
-1.24721e-19
-1.23961e-19
-1.23201e-19
-1.22442e-19
-1.21685e-19
-1.20929e-19
-1.20174e-19
-1.1942e-19
-1.18667e-19
-1.17916e-19
-1.17166e-19
-1.16417e-19
-1.1567e-19
-1.14924e-19
-1.1418e-19
-1.13437e-19
-1.12695e-19
-1.11955e-19
-1.11217e-19
-1.1048e-19
-1.09745e-19
-1.09012e-19
-1.0828e-19
-1.0755e-19
-1.06822e-19
-1.06096e-19
-1.05372e-19
-1.0465e-19
-1.03929e-19
-1.03211e-19
-1.02495e-19
-1.01781e-19
-1.01069e-19
-1.00357e-19
-9.96477e-20
-9.89401e-20
-9.82349e-20
-9.75315e-20
-9.68298e-20
-9.61297e-20
-9.54313e-20
-9.47347e-20
-9.404e-20
-9.33471e-20
-9.26561e-20
-9.19669e-20
-9.12797e-20
-9.05948e-20
-8.9912e-20
-8.92311e-20
-8.85529e-20
-8.78774e-20
-8.72045e-20
-8.65345e-20
-8.58674e-20
-8.52032e-20
-8.45421e-20
-8.3884e-20
-8.32291e-20
-8.25773e-20
-8.19286e-20
-8.12832e-20
-8.0641e-20
-8.0002e-20
-7.93663e-20
-7.8734e-20
-7.81049e-20
-7.74793e-20
-7.6857e-20
-7.62381e-20
-7.56226e-20
-7.50105e-20
-7.44019e-20
-7.37968e-20
-7.31951e-20
-7.2597e-20
-7.20023e-20
-7.14112e-20
-7.08237e-20
-7.02396e-20
-6.96592e-20
-6.90823e-20
-6.85089e-20
-6.79392e-20
-6.7373e-20
-6.68104e-20
-6.62515e-20
-6.56961e-20
-6.51443e-20
-6.45962e-20
-6.40516e-20
-6.35107e-20
-6.29733e-20
-6.24396e-20
-6.19095e-20
-6.13829e-20
-6.086e-20
-6.03406e-20
-5.98249e-20
-5.93127e-20
-5.88041e-20
-5.82991e-20
-5.77976e-20
-5.72997e-20
-5.68053e-20
-5.63145e-20
-5.58272e-20
-5.53434e-20
-5.48631e-20
-5.43864e-20
-5.39131e-20
-5.34433e-20
-5.29769e-20
-5.2514e-20
-5.20545e-20
-5.15985e-20
-5.11459e-20
-5.06967e-20
-5.02508e-20
-4.98083e-20
-4.93692e-20
-4.89334e-20
-4.8501e-20
-4.80718e-20
-4.7646e-20
-4.72234e-20
-4.68041e-20
-4.6388e-20
-4.59752e-20
-4.55656e-20
-4.51591e-20
-4.47559e-20
-4.43558e-20
-4.39589e-20
-4.35651e-20
-4.31744e-20
-4.27867e-20
-4.24022e-20
-4.20207e-20
-4.16423e-20
-4.12669e-20
-4.08945e-20
-4.05251e-20
-4.01586e-20
-3.97951e-20
-3.94345e-20
-3.90769e-20
-3.87221e-20
-3.83702e-20
-3.80212e-20
-3.7675e-20
-3.73317e-20
-3.69911e-20
-3.66534e-20
-3.63184e-20
-3.59861e-20
-3.56566e-20
-3.53298e-20
-3.50058e-20
-3.46844e-20
-3.43656e-20
-3.40495e-20
-3.3736e-20
-3.34252e-20
-3.31169e-20
-3.28112e-20
-3.2508e-20
-3.22074e-20
-3.19093e-20
-3.16138e-20
-3.13207e-20
-3.103e-20
-3.07418e-20
-3.04561e-20
-3.01728e-20
-2.98918e-20
-2.96133e-20
-2.93371e-20
-2.90633e-20
-2.87918e-20
-2.85226e-20
-2.82557e-20
-2.79911e-20
-2.77288e-20
-2.74687e-20
-2.72108e-20
-2.69552e-20
-2.67017e-20
-2.64505e-20
-2.62014e-20
-2.59545e-20
-2.57097e-20
-2.5467e-20
-2.52264e-20
-2.49879e-20
-2.47515e-20
-2.45172e-20
-2.42849e-20
-2.40546e-20
-2.38263e-20
-2.36001e-20
-2.33758e-20
-2.31534e-20
-2.29331e-20
-2.27147e-20
-2.24981e-20
-2.22836e-20
-2.20709e-20
-2.186e-20
-2.16511e-20
-2.1444e-20
-2.12387e-20
-2.10353e-20
-2.08336e-20
-2.06338e-20
-2.04357e-20
-2.02394e-20
-2.00449e-20
-1.98521e-20
-1.9661e-20
-1.94717e-20
-1.9284e-20
-1.90981e-20
-1.89138e-20
-1.87312e-20
-1.85502e-20
-1.83708e-20
-1.81931e-20
-1.8017e-20
-1.78425e-20
-1.76695e-20
-1.74982e-20
-1.73284e-20
-1.71601e-20
-1.69934e-20
-1.68282e-20
-1.66645e-20
-1.65023e-20
-1.63416e-20
-1.61824e-20
-1.60246e-20
-1.58683e-20
-1.57134e-20
-1.556e-20
-1.5408e-20
-1.52574e-20
-1.51081e-20
-1.49603e-20
-1.48138e-20
-1.46687e-20
-1.45249e-20
-1.43825e-20
-1.42414e-20
-1.41016e-20
-1.39632e-20
-1.3826e-20
-1.36901e-20
-1.35555e-20
-1.34221e-20
-1.329e-20
-1.31592e-20
-1.30295e-20
-1.29011e-20
-1.2774e-20
-1.2648e-20
-1.25232e-20
-1.23996e-20
-1.22771e-20
-1.21559e-20
-1.20358e-20
-1.19168e-20
-1.1799e-20
-1.16822e-20
-1.15666e-20
-1.14522e-20
-1.13388e-20
-1.12265e-20
-1.11152e-20
-1.10051e-20
-1.0896e-20
-1.0788e-20
-1.0681e-20
-1.0575e-20
-1.04701e-20
-1.03661e-20
-1.02632e-20
-1.01613e-20
-1.00604e-20
-9.96046e-21
-9.86149e-21
-9.76349e-21
-9.66646e-21
-9.57036e-21
-9.47522e-21
-9.381e-21
-9.28771e-21
-9.19534e-21
-9.10388e-21
-9.01331e-21
-8.92365e-21
-8.83486e-21
-8.74696e-21
-8.65993e-21
-8.57376e-21
-8.48845e-21
-8.40398e-21
-8.32036e-21
-8.23757e-21
-8.1556e-21
-8.07446e-21
-7.99412e-21
-7.91459e-21
-7.83586e-21
-7.75792e-21
-7.68076e-21
-7.60438e-21
-7.52877e-21
-7.45392e-21
-7.37983e-21
-7.30649e-21
-7.23389e-21
-7.16203e-21
-7.09089e-21
-7.02049e-21
-6.95079e-21
-6.88181e-21
-6.81353e-21
-6.74595e-21
-6.67906e-21
-6.61286e-21
-6.54733e-21
-6.48248e-21
-6.41829e-21
-6.35477e-21
-6.2919e-21
-6.22968e-21
-6.1681e-21
-6.10716e-21
-6.04685e-21
-5.98717e-21
-5.9281e-21
-5.86966e-21
-5.81181e-21
-5.75458e-21
-5.69794e-21
-5.64189e-21
-5.58643e-21
-5.53155e-21
-5.47725e-21
-5.42352e-21
-5.37035e-21
-5.31774e-21
-5.26569e-21
-5.21419e-21
-5.16323e-21
-5.11281e-21
-5.06293e-21
-5.01358e-21
-4.96475e-21
-4.91644e-21
-4.86865e-21
-4.82137e-21
-4.77459e-21
-4.72831e-21
-4.68253e-21
-4.63724e-21
-4.59244e-21
-4.54812e-21
-4.50428e-21
-4.46091e-21
-4.418e-21
-4.37557e-21
-4.33359e-21
-4.29207e-21
-4.251e-21
-4.21037e-21
-4.17019e-21
-4.13045e-21
-4.09114e-21
-4.05226e-21
-4.0138e-21
-3.97577e-21
-3.93815e-21
-3.90095e-21
-3.86416e-21
-3.82777e-21
-3.79179e-21
-3.7562e-21
-3.72101e-21
-3.6862e-21
-3.65178e-21
-3.61775e-21
-3.58409e-21
-3.55081e-21
-3.5179e-21
-3.48536e-21
-3.45318e-21
-3.42136e-21
-3.3899e-21
-3.35879e-21
-3.32803e-21
-3.29762e-21
-3.26755e-21
-3.23782e-21
-3.20842e-21
-3.17936e-21
-3.15063e-21
-3.12222e-21
-3.09413e-21
-3.06636e-21
-3.03891e-21
-3.01177e-21
-2.98495e-21
-2.95842e-21
-2.9322e-21
-2.90628e-21
-2.88066e-21
-2.85533e-21
-2.83029e-21
-2.80553e-21
-2.78106e-21
-2.75688e-21
-2.73297e-21
-2.70933e-21
-2.68597e-21
-2.66287e-21
-2.64005e-21
-2.61748e-21
-2.59518e-21
-2.57313e-21
-2.55134e-21
-2.5298e-21
-2.50851e-21
-2.48746e-21
-2.46666e-21
-2.44609e-21
-2.42577e-21
-2.40567e-21
-2.38581e-21
-2.36618e-21
-2.34677e-21
-2.32759e-21
-2.30863e-21
-2.28988e-21
-2.27135e-21
-2.25303e-21
-2.23492e-21
-2.21701e-21
-2.19931e-21
-2.18181e-21
-2.16451e-21
-2.1474e-21
-2.13048e-21
-2.11375e-21
-2.09721e-21
-2.08085e-21
-2.06467e-21
-2.04867e-21
-2.03284e-21
-2.01719e-21
-2.0017e-21
-1.98638e-21
-1.97122e-21
-1.95622e-21
-1.94137e-21
-1.92668e-21
-1.91214e-21
-1.89774e-21
-1.88349e-21
-1.86937e-21
-1.8554e-21
-1.84155e-21
-1.82783e-21
-1.81424e-21
-1.80077e-21
-1.78742e-21
-1.77418e-21
-1.76104e-21
-1.74802e-21
-1.73509e-21
-1.72226e-21
-1.70953e-21
-1.69688e-21
-1.68431e-21
-1.67182e-21
-1.65939e-21
-1.64704e-21
-1.63474e-21
-1.6225e-21
-1.6103e-21
-1.59815e-21
-1.58603e-21
-1.57393e-21
-1.56185e-21
-1.54978e-21
-1.53771e-21
-1.52563e-21
-1.51353e-21
-1.50141e-21
-1.48924e-21
-1.47702e-21
-1.46473e-21
-1.45236e-21
-1.43989e-21
-1.42731e-21
-1.41459e-21
-1.40173e-21
-1.38869e-21
-1.37545e-21
-1.36199e-21
-1.34827e-21
-1.33427e-21
-1.31995e-21
-1.30526e-21
-1.29016e-21
-1.2746e-21
-1.25853e-21
-1.24186e-21
-1.22453e-21
-1.20644e-21
-1.18749e-21
-1.16756e-21
-1.14649e-21
-1.12412e-21
-1.10024e-21
-1.07457e-21
-1.04682e-21
-1.01659e-21
-9.83374e-22
-9.46562e-22
-9.05359e-22
-8.5877e-22
-8.05571e-22
-7.44365e-22
-6.73817e-22
-5.93239e-22
-5.03372e-22
-4.06649e-22
-3.06189e-22
-2.04341e-22
-1.02183e-22
)
;

boundaryField
{
    top_wall
    {
        type            calculated;
        value           uniform 0;
    }
    inlet
    {
        type            cyclic;
        value           nonuniform List<scalar> 
1000
(
-1.14902e-05
-3.44246e-05
-5.72954e-05
-7.99861e-05
-0.000102125
-0.000123033
-0.000142004
-0.000158676
-0.000173099
-0.000185546
-0.000196347
-0.000205802
-0.000214159
-0.000221615
-0.000228324
-0.00023441
-0.000239969
-0.000245078
-0.0002498
-0.000254186
-0.000258277
-0.00026211
-0.000265712
-0.00026911
-0.000272324
-0.000275371
-0.000278269
-0.00028103
-0.000283666
-0.000286189
-0.000288606
-0.000290926
-0.000293156
-0.000295304
-0.000297374
-0.000299372
-0.000301303
-0.000303171
-0.00030498
-0.000306733
-0.000308434
-0.000310086
-0.000311692
-0.000313253
-0.000314773
-0.000316253
-0.000317695
-0.000319102
-0.000320475
-0.000321816
-0.000323125
-0.000324406
-0.000325657
-0.000326882
-0.000328081
-0.000329256
-0.000330406
-0.000331534
-0.00033264
-0.000333724
-0.000334788
-0.000335833
-0.000336859
-0.000337867
-0.000338857
-0.00033983
-0.000340787
-0.000341728
-0.000342654
-0.000343565
-0.000344462
-0.000345345
-0.000346214
-0.000347071
-0.000347914
-0.000348746
-0.000349566
-0.000350374
-0.00035117
-0.000351956
-0.000352732
-0.000353497
-0.000354252
-0.000354997
-0.000355732
-0.000356459
-0.000357176
-0.000357885
-0.000358585
-0.000359276
-0.00035996
-0.000360635
-0.000361303
-0.000361963
-0.000362615
-0.000363261
-0.000363899
-0.000364531
-0.000365155
-0.000365773
-0.000366385
-0.00036699
-0.000367589
-0.000368182
-0.000368769
-0.00036935
-0.000369925
-0.000370495
-0.00037106
-0.000371619
-0.000372173
-0.000372721
-0.000373265
-0.000373803
-0.000374337
-0.000374866
-0.000375391
-0.00037591
-0.000376426
-0.000376936
-0.000377443
-0.000377945
-0.000378443
-0.000378937
-0.000379427
-0.000379912
-0.000380394
-0.000380872
-0.000381347
-0.000381817
-0.000382284
-0.000382747
-0.000383207
-0.000383663
-0.000384116
-0.000384566
-0.000385012
-0.000385455
-0.000385894
-0.000386331
-0.000386764
-0.000387194
-0.000387621
-0.000388046
-0.000388467
-0.000388885
-0.000389301
-0.000389714
-0.000390124
-0.000390531
-0.000390935
-0.000391337
-0.000391736
-0.000392133
-0.000392527
-0.000392919
-0.000393308
-0.000393694
-0.000394078
-0.00039446
-0.00039484
-0.000395217
-0.000395591
-0.000395964
-0.000396334
-0.000396702
-0.000397068
-0.000397432
-0.000397793
-0.000398153
-0.00039851
-0.000398865
-0.000399219
-0.00039957
-0.000399919
-0.000400267
-0.000400612
-0.000400955
-0.000401297
-0.000401636
-0.000401974
-0.00040231
-0.000402644
-0.000402977
-0.000403307
-0.000403636
-0.000403963
-0.000404288
-0.000404612
-0.000404934
-0.000405254
-0.000405573
-0.00040589
-0.000406205
-0.000406519
-0.000406831
-0.000407141
-0.00040745
-0.000407758
-0.000408064
-0.000408368
-0.000408671
-0.000408972
-0.000409272
-0.000409571
-0.000409868
-0.000410163
-0.000410458
-0.00041075
-0.000411042
-0.000411332
-0.00041162
-0.000411907
-0.000412193
-0.000412478
-0.000412761
-0.000413043
-0.000413323
-0.000413603
-0.000413881
-0.000414157
-0.000414433
-0.000414707
-0.00041498
-0.000415252
-0.000415522
-0.000415791
-0.000416059
-0.000416326
-0.000416592
-0.000416856
-0.000417119
-0.000417381
-0.000417642
-0.000417902
-0.000418161
-0.000418418
-0.000418675
-0.00041893
-0.000419184
-0.000419437
-0.000419689
-0.00041994
-0.00042019
-0.000420438
-0.000420686
-0.000420932
-0.000421178
-0.000421422
-0.000421665
-0.000421908
-0.000422149
-0.000422389
-0.000422629
-0.000422867
-0.000423104
-0.00042334
-0.000423575
-0.000423809
-0.000424043
-0.000424275
-0.000424506
-0.000424736
-0.000424966
-0.000425194
-0.000425421
-0.000425648
-0.000425873
-0.000426097
-0.000426321
-0.000426544
-0.000426765
-0.000426986
-0.000427206
-0.000427424
-0.000427642
-0.000427859
-0.000428076
-0.000428291
-0.000428505
-0.000428718
-0.000428931
-0.000429142
-0.000429353
-0.000429563
-0.000429772
-0.00042998
-0.000430187
-0.000430393
-0.000430599
-0.000430803
-0.000431007
-0.00043121
-0.000431412
-0.000431613
-0.000431813
-0.000432012
-0.000432211
-0.000432408
-0.000432605
-0.000432801
-0.000432996
-0.000433191
-0.000433384
-0.000433577
-0.000433768
-0.000433959
-0.000434149
-0.000434338
-0.000434527
-0.000434714
-0.000434901
-0.000435087
-0.000435272
-0.000435457
-0.00043564
-0.000435823
-0.000436004
-0.000436185
-0.000436366
-0.000436545
-0.000436724
-0.000436901
-0.000437078
-0.000437254
-0.00043743
-0.000437604
-0.000437778
-0.000437951
-0.000438123
-0.000438294
-0.000438465
-0.000438634
-0.000438803
-0.000438971
-0.000439139
-0.000439305
-0.000439471
-0.000439636
-0.0004398
-0.000439963
-0.000440125
-0.000440287
-0.000440448
-0.000440608
-0.000440767
-0.000440925
-0.000441083
-0.00044124
-0.000441396
-0.000441551
-0.000441706
-0.000441859
-0.000442012
-0.000442164
-0.000442315
-0.000442465
-0.000442615
-0.000442764
-0.000442912
-0.000443059
-0.000443205
-0.000443351
-0.000443495
-0.000443639
-0.000443782
-0.000443925
-0.000444066
-0.000444207
-0.000444346
-0.000444485
-0.000444624
-0.000444761
-0.000444897
-0.000445033
-0.000445168
-0.000445302
-0.000445435
-0.000445567
-0.000445699
-0.00044583
-0.000445959
-0.000446088
-0.000446216
-0.000446344
-0.00044647
-0.000446596
-0.00044672
-0.000446844
-0.000446967
-0.000447089
-0.000447211
-0.000447331
-0.000447451
-0.000447569
-0.000447687
-0.000447804
-0.00044792
-0.000448035
-0.000448149
-0.000448263
-0.000448375
-0.000448487
-0.000448597
-0.000448707
-0.000448816
-0.000448924
-0.000449031
-0.000449137
-0.000449242
-0.000449346
-0.00044945
-0.000449552
-0.000449653
-0.000449754
-0.000449853
-0.000449952
-0.00045005
-0.000450146
-0.000450242
-0.000450337
-0.00045043
-0.000450523
-0.000450615
-0.000450706
-0.000450796
-0.000450884
-0.000450972
-0.000451059
-0.000451145
-0.000451229
-0.000451313
-0.000451396
-0.000451477
-0.000451558
-0.000451638
-0.000451716
-0.000451794
-0.00045187
-0.000451945
-0.00045202
-0.000452093
-0.000452165
-0.000452236
-0.000452306
-0.000452374
-0.000452442
-0.000452509
-0.000452574
-0.000452638
-0.000452702
-0.000452764
-0.000452824
-0.000452884
-0.000452943
-0.000453
-0.000453056
-0.000453111
-0.000453165
-0.000453218
-0.00045327
-0.00045332
-0.000453369
-0.000453417
-0.000453463
-0.000453509
-0.000453553
-0.000453596
-0.000453638
-0.000453678
-0.000453718
-0.000453756
-0.000453792
-0.000453828
-0.000453862
-0.000453895
-0.000453927
-0.000453957
-0.000453986
-0.000454014
-0.00045404
-0.000454065
-0.000454089
-0.000454112
-0.000454133
-0.000454153
-0.000454172
-0.000454189
-0.000454205
-0.00045422
-0.000454233
-0.000454245
-0.000454256
-0.000454265
-0.000454273
-0.00045428
-0.000454285
-0.000454289
-0.000454292
-0.000454293
-0.000454293
-0.000454292
-0.000454289
-0.000454285
-0.00045428
-0.000454273
-0.000454265
-0.000454256
-0.000454245
-0.000454233
-0.00045422
-0.000454205
-0.000454189
-0.000454172
-0.000454153
-0.000454133
-0.000454112
-0.000454089
-0.000454065
-0.00045404
-0.000454014
-0.000453986
-0.000453957
-0.000453927
-0.000453895
-0.000453862
-0.000453828
-0.000453792
-0.000453756
-0.000453718
-0.000453678
-0.000453638
-0.000453596
-0.000453553
-0.000453509
-0.000453463
-0.000453417
-0.000453369
-0.00045332
-0.00045327
-0.000453218
-0.000453165
-0.000453111
-0.000453056
-0.000453
-0.000452943
-0.000452884
-0.000452824
-0.000452764
-0.000452702
-0.000452638
-0.000452574
-0.000452509
-0.000452442
-0.000452374
-0.000452306
-0.000452236
-0.000452165
-0.000452093
-0.00045202
-0.000451945
-0.00045187
-0.000451794
-0.000451716
-0.000451638
-0.000451558
-0.000451478
-0.000451396
-0.000451313
-0.000451229
-0.000451145
-0.000451059
-0.000450972
-0.000450884
-0.000450796
-0.000450706
-0.000450615
-0.000450523
-0.00045043
-0.000450337
-0.000450242
-0.000450146
-0.00045005
-0.000449952
-0.000449853
-0.000449754
-0.000449653
-0.000449552
-0.00044945
-0.000449346
-0.000449242
-0.000449137
-0.000449031
-0.000448924
-0.000448816
-0.000448707
-0.000448597
-0.000448487
-0.000448375
-0.000448263
-0.000448149
-0.000448035
-0.00044792
-0.000447804
-0.000447687
-0.000447569
-0.000447451
-0.000447331
-0.000447211
-0.000447089
-0.000446967
-0.000446844
-0.00044672
-0.000446596
-0.00044647
-0.000446344
-0.000446216
-0.000446088
-0.000445959
-0.00044583
-0.000445699
-0.000445567
-0.000445435
-0.000445302
-0.000445168
-0.000445033
-0.000444897
-0.000444761
-0.000444624
-0.000444485
-0.000444346
-0.000444207
-0.000444066
-0.000443925
-0.000443782
-0.000443639
-0.000443495
-0.000443351
-0.000443205
-0.000443059
-0.000442912
-0.000442764
-0.000442615
-0.000442465
-0.000442315
-0.000442164
-0.000442012
-0.000441859
-0.000441706
-0.000441551
-0.000441396
-0.00044124
-0.000441083
-0.000440925
-0.000440767
-0.000440608
-0.000440448
-0.000440287
-0.000440125
-0.000439963
-0.0004398
-0.000439636
-0.000439471
-0.000439305
-0.000439139
-0.000438971
-0.000438803
-0.000438634
-0.000438465
-0.000438294
-0.000438123
-0.000437951
-0.000437778
-0.000437604
-0.00043743
-0.000437254
-0.000437078
-0.000436901
-0.000436724
-0.000436545
-0.000436366
-0.000436186
-0.000436005
-0.000435823
-0.00043564
-0.000435457
-0.000435272
-0.000435087
-0.000434901
-0.000434714
-0.000434527
-0.000434339
-0.000434149
-0.000433959
-0.000433768
-0.000433577
-0.000433384
-0.000433191
-0.000432996
-0.000432801
-0.000432605
-0.000432408
-0.000432211
-0.000432012
-0.000431813
-0.000431613
-0.000431412
-0.00043121
-0.000431007
-0.000430803
-0.000430599
-0.000430393
-0.000430187
-0.00042998
-0.000429772
-0.000429563
-0.000429353
-0.000429142
-0.000428931
-0.000428718
-0.000428505
-0.000428291
-0.000428076
-0.000427859
-0.000427642
-0.000427425
-0.000427206
-0.000426986
-0.000426765
-0.000426544
-0.000426321
-0.000426097
-0.000425873
-0.000425648
-0.000425421
-0.000425194
-0.000424966
-0.000424736
-0.000424506
-0.000424275
-0.000424043
-0.000423809
-0.000423575
-0.00042334
-0.000423104
-0.000422867
-0.000422629
-0.000422389
-0.000422149
-0.000421908
-0.000421665
-0.000421422
-0.000421178
-0.000420932
-0.000420686
-0.000420438
-0.00042019
-0.00041994
-0.000419689
-0.000419437
-0.000419184
-0.00041893
-0.000418675
-0.000418418
-0.000418161
-0.000417902
-0.000417642
-0.000417381
-0.000417119
-0.000416856
-0.000416592
-0.000416326
-0.000416059
-0.000415791
-0.000415522
-0.000415252
-0.00041498
-0.000414707
-0.000414433
-0.000414157
-0.000413881
-0.000413603
-0.000413323
-0.000413043
-0.000412761
-0.000412478
-0.000412193
-0.000411907
-0.00041162
-0.000411332
-0.000411042
-0.00041075
-0.000410458
-0.000410163
-0.000409868
-0.000409571
-0.000409272
-0.000408972
-0.000408671
-0.000408368
-0.000408064
-0.000407758
-0.00040745
-0.000407141
-0.000406831
-0.000406519
-0.000406205
-0.00040589
-0.000405573
-0.000405254
-0.000404934
-0.000404612
-0.000404288
-0.000403963
-0.000403636
-0.000403307
-0.000402977
-0.000402644
-0.00040231
-0.000401974
-0.000401636
-0.000401297
-0.000400955
-0.000400612
-0.000400266
-0.000399919
-0.00039957
-0.000399219
-0.000398865
-0.00039851
-0.000398153
-0.000397793
-0.000397432
-0.000397068
-0.000396702
-0.000396334
-0.000395964
-0.000395591
-0.000395217
-0.000394839
-0.00039446
-0.000394078
-0.000393694
-0.000393308
-0.000392918
-0.000392527
-0.000392133
-0.000391736
-0.000391337
-0.000390935
-0.000390531
-0.000390124
-0.000389714
-0.000389301
-0.000388885
-0.000388467
-0.000388046
-0.000387621
-0.000387194
-0.000386764
-0.000386331
-0.000385894
-0.000385454
-0.000385012
-0.000384565
-0.000384116
-0.000383663
-0.000383207
-0.000382747
-0.000382284
-0.000381817
-0.000381347
-0.000380872
-0.000380394
-0.000379912
-0.000379426
-0.000378937
-0.000378443
-0.000377945
-0.000377443
-0.000376936
-0.000376425
-0.00037591
-0.000375391
-0.000374866
-0.000374337
-0.000373803
-0.000373265
-0.000372721
-0.000372173
-0.000371619
-0.00037106
-0.000370495
-0.000369925
-0.00036935
-0.000368769
-0.000368182
-0.000367589
-0.00036699
-0.000366385
-0.000365773
-0.000365155
-0.00036453
-0.000363899
-0.000363261
-0.000362615
-0.000361963
-0.000361303
-0.000360635
-0.00035996
-0.000359276
-0.000358585
-0.000357885
-0.000357176
-0.000356459
-0.000355732
-0.000354997
-0.000354252
-0.000353497
-0.000352732
-0.000351956
-0.00035117
-0.000350374
-0.000349565
-0.000348746
-0.000347914
-0.000347071
-0.000346214
-0.000345345
-0.000344462
-0.000343565
-0.000342654
-0.000341728
-0.000340787
-0.00033983
-0.000338857
-0.000337867
-0.000336859
-0.000335833
-0.000334788
-0.000333724
-0.000332639
-0.000331534
-0.000330406
-0.000329256
-0.000328081
-0.000326882
-0.000325657
-0.000324406
-0.000323125
-0.000321816
-0.000320475
-0.000319102
-0.000317695
-0.000316253
-0.000314773
-0.000313253
-0.000311692
-0.000310086
-0.000308434
-0.000306733
-0.00030498
-0.000303171
-0.000301303
-0.000299372
-0.000297374
-0.000295304
-0.000293156
-0.000290926
-0.000288605
-0.000286188
-0.000283666
-0.00028103
-0.000278269
-0.000275371
-0.000272324
-0.00026911
-0.000265712
-0.00026211
-0.000258277
-0.000254186
-0.0002498
-0.000245078
-0.000239969
-0.00023441
-0.000228324
-0.000221615
-0.000214159
-0.000205802
-0.000196347
-0.000185546
-0.000173099
-0.000158676
-0.000142004
-0.000123033
-0.000102125
-7.99861e-05
-5.72954e-05
-3.44246e-05
-1.14902e-05
)
;
    }
    bot_wall
    {
        type            calculated;
        value           uniform 0;
    }
    outlet
    {
        type            cyclic;
        value           nonuniform List<scalar> 
1000
(
1.14902e-05
3.44246e-05
5.72954e-05
7.99861e-05
0.000102125
0.000123033
0.000142004
0.000158676
0.000173099
0.000185546
0.000196347
0.000205802
0.000214159
0.000221615
0.000228324
0.00023441
0.000239969
0.000245078
0.0002498
0.000254186
0.000258277
0.00026211
0.000265712
0.00026911
0.000272324
0.000275371
0.000278269
0.00028103
0.000283666
0.000286189
0.000288606
0.000290926
0.000293156
0.000295304
0.000297374
0.000299372
0.000301303
0.000303171
0.00030498
0.000306733
0.000308434
0.000310086
0.000311692
0.000313253
0.000314773
0.000316253
0.000317695
0.000319102
0.000320475
0.000321816
0.000323125
0.000324406
0.000325657
0.000326882
0.000328081
0.000329256
0.000330406
0.000331534
0.00033264
0.000333724
0.000334788
0.000335833
0.000336859
0.000337867
0.000338857
0.00033983
0.000340787
0.000341728
0.000342654
0.000343565
0.000344462
0.000345345
0.000346214
0.000347071
0.000347914
0.000348746
0.000349566
0.000350374
0.00035117
0.000351956
0.000352732
0.000353497
0.000354252
0.000354997
0.000355732
0.000356459
0.000357176
0.000357885
0.000358585
0.000359276
0.00035996
0.000360635
0.000361303
0.000361963
0.000362615
0.000363261
0.000363899
0.000364531
0.000365155
0.000365773
0.000366385
0.00036699
0.000367589
0.000368182
0.000368769
0.00036935
0.000369925
0.000370495
0.00037106
0.000371619
0.000372173
0.000372721
0.000373265
0.000373803
0.000374337
0.000374866
0.000375391
0.00037591
0.000376426
0.000376936
0.000377443
0.000377945
0.000378443
0.000378937
0.000379427
0.000379912
0.000380394
0.000380872
0.000381347
0.000381817
0.000382284
0.000382747
0.000383207
0.000383663
0.000384116
0.000384566
0.000385012
0.000385455
0.000385894
0.000386331
0.000386764
0.000387194
0.000387621
0.000388046
0.000388467
0.000388885
0.000389301
0.000389714
0.000390124
0.000390531
0.000390935
0.000391337
0.000391736
0.000392133
0.000392527
0.000392919
0.000393308
0.000393694
0.000394078
0.00039446
0.00039484
0.000395217
0.000395591
0.000395964
0.000396334
0.000396702
0.000397068
0.000397432
0.000397793
0.000398153
0.00039851
0.000398865
0.000399219
0.00039957
0.000399919
0.000400267
0.000400612
0.000400955
0.000401297
0.000401636
0.000401974
0.00040231
0.000402644
0.000402977
0.000403307
0.000403636
0.000403963
0.000404288
0.000404612
0.000404934
0.000405254
0.000405573
0.00040589
0.000406205
0.000406519
0.000406831
0.000407141
0.00040745
0.000407758
0.000408064
0.000408368
0.000408671
0.000408972
0.000409272
0.000409571
0.000409868
0.000410163
0.000410458
0.00041075
0.000411042
0.000411332
0.00041162
0.000411907
0.000412193
0.000412478
0.000412761
0.000413043
0.000413323
0.000413603
0.000413881
0.000414157
0.000414433
0.000414707
0.00041498
0.000415252
0.000415522
0.000415791
0.000416059
0.000416326
0.000416592
0.000416856
0.000417119
0.000417381
0.000417642
0.000417902
0.000418161
0.000418418
0.000418675
0.00041893
0.000419184
0.000419437
0.000419689
0.00041994
0.00042019
0.000420438
0.000420686
0.000420932
0.000421178
0.000421422
0.000421665
0.000421908
0.000422149
0.000422389
0.000422629
0.000422867
0.000423104
0.00042334
0.000423575
0.000423809
0.000424043
0.000424275