/*--------------------------------*- C++ -*----------------------------------*\
| =========                 |                                                 |
| \\      /  F ield         | OpenFOAM: The Open Source CFD Toolbox           |
|  \\    /   O peration     | Version:  2406                                  |
|   \\  /    A nd           | Website:  www.openfoam.com                      |
|    \\/     M anipulation  |                                                 |
\*---------------------------------------------------------------------------*/
FoamFile
{
    version     2.0;
    format      ascii;
    arch        "LSB;label=32;scalar=64";
    class       volVectorField;
    location    "17.925";
    object      U;
}
// * * * * * * * * * * * * * * * * * * * * * * * * * * * * * * * * * * * * * //

dimensions      [0 1 -1 0 0 0 0];

internalField   nonuniform List<vector> 
1000
(
(0.114902 2.74475e-18 0)
(0.344246 8.29829e-18 0)
(0.572954 7.40493e-18 0)
(0.799861 7.19054e-18 0)
(1.02125 7.12785e-18 0)
(1.23033 7.09387e-18 0)
(1.42004 6.98409e-18 0)
(1.58676 7.04999e-18 0)
(1.73099 7.3464e-18 0)
(1.85546 7.59657e-18 0)
(1.96347 7.56929e-18 0)
(2.05802 7.44625e-18 0)
(2.14159 7.47298e-18 0)
(2.21615 7.45435e-18 0)
(2.28324 7.31819e-18 0)
(2.3441 7.21861e-18 0)
(2.39969 7.2089e-18 0)
(2.45078 7.23446e-18 0)
(2.498 7.25188e-18 0)
(2.54186 7.26342e-18 0)
(2.58277 7.27076e-18 0)
(2.6211 7.27512e-18 0)
(2.65712 7.2774e-18 0)
(2.6911 7.27827e-18 0)
(2.72324 7.27821e-18 0)
(2.75371 7.27756e-18 0)
(2.78269 7.27655e-18 0)
(2.8103 7.27534e-18 0)
(2.83666 7.27404e-18 0)
(2.86189 7.27273e-18 0)
(2.88606 7.27144e-18 0)
(2.90926 7.27019e-18 0)
(2.93156 7.26901e-18 0)
(2.95304 7.26789e-18 0)
(2.97374 7.26685e-18 0)
(2.99372 7.26589e-18 0)
(3.01303 7.265e-18 0)
(3.03171 7.2642e-18 0)
(3.0498 7.26348e-18 0)
(3.06733 7.26285e-18 0)
(3.08434 7.26233e-18 0)
(3.10086 7.2619e-18 0)
(3.11692 7.26159e-18 0)
(3.13253 7.2614e-18 0)
(3.14773 7.26134e-18 0)
(3.16253 7.26141e-18 0)
(3.17695 7.26162e-18 0)
(3.19102 7.26197e-18 0)
(3.20475 7.26248e-18 0)
(3.21816 7.26314e-18 0)
(3.23125 7.26396e-18 0)
(3.24406 7.26494e-18 0)
(3.25657 7.26608e-18 0)
(3.26882 7.26738e-18 0)
(3.28081 7.26884e-18 0)
(3.29256 7.27047e-18 0)
(3.30406 7.27225e-18 0)
(3.31534 7.27419e-18 0)
(3.3264 7.27628e-18 0)
(3.33724 7.27851e-18 0)
(3.34788 7.28089e-18 0)
(3.35833 7.28341e-18 0)
(3.36859 7.28606e-18 0)
(3.37867 7.28883e-18 0)
(3.38857 7.29172e-18 0)
(3.3983 7.29472e-18 0)
(3.40787 7.29782e-18 0)
(3.41728 7.30101e-18 0)
(3.42654 7.30428e-18 0)
(3.43565 7.30763e-18 0)
(3.44462 7.31103e-18 0)
(3.45345 7.31448e-18 0)
(3.46214 7.31797e-18 0)
(3.47071 7.32148e-18 0)
(3.47914 7.325e-18 0)
(3.48746 7.32852e-18 0)
(3.49566 7.33202e-18 0)
(3.50374 7.33549e-18 0)
(3.5117 7.33891e-18 0)
(3.51956 7.34227e-18 0)
(3.52732 7.34555e-18 0)
(3.53497 7.34874e-18 0)
(3.54252 7.35181e-18 0)
(3.54997 7.35476e-18 0)
(3.55732 7.35756e-18 0)
(3.56459 7.36021e-18 0)
(3.57176 7.36267e-18 0)
(3.57885 7.36494e-18 0)
(3.58585 7.36701e-18 0)
(3.59276 7.36885e-18 0)
(3.5996 7.37045e-18 0)
(3.60635 7.3718e-18 0)
(3.61303 7.37288e-18 0)
(3.61963 7.37369e-18 0)
(3.62615 7.37422e-18 0)
(3.63261 7.37445e-18 0)
(3.63899 7.37438e-18 0)
(3.64531 7.37401e-18 0)
(3.65155 7.37333e-18 0)
(3.65773 7.37235e-18 0)
(3.66385 7.37106e-18 0)
(3.6699 7.36947e-18 0)
(3.67589 7.36759e-18 0)
(3.68182 7.36543e-18 0)
(3.68769 7.36299e-18 0)
(3.6935 7.36029e-18 0)
(3.69925 7.35734e-18 0)
(3.70495 7.35415e-18 0)
(3.7106 7.35072e-18 0)
(3.71619 7.34705e-18 0)
(3.72173 7.34314e-18 0)
(3.72721 7.33897e-18 0)
(3.73265 7.3345e-18 0)
(3.73803 7.32967e-18 0)
(3.74337 7.32439e-18 0)
(3.74866 7.31854e-18 0)
(3.75391 7.31193e-18 0)
(3.7591 7.30434e-18 0)
(3.76426 7.29544e-18 0)
(3.76936 7.28483e-18 0)
(3.77443 7.27257e-18 0)
(3.77945 7.25805e-18 0)
(3.78443 7.24056e-18 0)
(3.78937 7.21923e-18 0)
(3.79427 7.19367e-18 0)
(3.79912 7.16271e-18 0)
(3.80394 7.12556e-18 0)
(3.80872 7.08128e-18 0)
(3.81347 7.02824e-18 0)
(3.81817 6.96519e-18 0)
(3.82284 6.89135e-18 0)
(3.82747 6.80534e-18 0)
(3.83207 6.70646e-18 0)
(3.83663 6.5937e-18 0)
(3.84116 6.46703e-18 0)
(3.84566 6.32716e-18 0)
(3.85012 6.17594e-18 0)
(3.85455 6.01738e-18 0)
(3.85894 5.85242e-18 0)
(3.86331 5.73266e-18 0)
(3.86764 5.86394e-18 0)
(3.87194 6.0132e-18 0)
(3.87621 5.9525e-18 0)
(3.88046 5.86481e-18 0)
(3.88467 5.77904e-18 0)
(3.88885 5.69776e-18 0)
(3.89301 5.6244e-18 0)
(3.89714 5.5607e-18 0)
(3.90124 5.50728e-18 0)
(3.90531 5.46402e-18 0)
(3.90935 5.42983e-18 0)
(3.91337 5.40393e-18 0)
(3.91736 5.38491e-18 0)
(3.92133 5.37188e-18 0)
(3.92527 5.36357e-18 0)
(3.92919 5.35885e-18 0)
(3.93308 5.35629e-18 0)
(3.93694 5.3551e-18 0)
(3.94078 5.35469e-18 0)
(3.9446 5.3541e-18 0)
(3.9484 5.35255e-18 0)
(3.95217 5.34985e-18 0)
(3.95591 5.34549e-18 0)
(3.95964 5.33907e-18 0)
(3.96334 5.33028e-18 0)
(3.96702 5.31888e-18 0)
(3.97068 5.30468e-18 0)
(3.97432 5.28753e-18 0)
(3.97793 5.26685e-18 0)
(3.98153 5.24963e-18 0)
(3.9851 5.14261e-18 0)
(3.98865 4.87623e-18 0)
(3.99219 4.608e-18 0)
(3.9957 4.49507e-18 0)
(3.99919 4.46621e-18 0)
(4.00267 4.4287e-18 0)
(4.00612 4.38924e-18 0)
(4.00955 4.34765e-18 0)
(4.01297 4.30424e-18 0)
(4.01636 4.25938e-18 0)
(4.01974 4.21307e-18 0)
(4.0231 4.16575e-18 0)
(4.02644 4.11792e-18 0)
(4.02977 4.06964e-18 0)
(4.03307 4.02145e-18 0)
(4.03636 3.97339e-18 0)
(4.03963 3.92587e-18 0)
(4.04288 3.87875e-18 0)
(4.04612 3.83211e-18 0)
(4.04934 3.78531e-18 0)
(4.05254 3.73775e-18 0)
(4.05573 3.68825e-18 0)
(4.0589 3.63498e-18 0)
(4.06205 3.57566e-18 0)
(4.06519 3.507e-18 0)
(4.06831 3.42548e-18 0)
(4.07141 3.32778e-18 0)
(4.0745 3.21067e-18 0)
(4.07758 3.06955e-18 0)
(4.08064 2.92244e-18 0)
(4.08368 2.7852e-18 0)
(4.08671 2.65936e-18 0)
(4.08972 2.43909e-18 0)
(4.09272 2.27709e-18 0)
(4.09571 2.11448e-18 0)
(4.09868 1.89386e-18 0)
(4.10163 1.76665e-18 0)
(4.10458 1.62697e-18 0)
(4.1075 1.47629e-18 0)
(4.11042 1.33072e-18 0)
(4.11332 1.20837e-18 0)
(4.1162 1.10421e-18 0)
(4.11907 1.01534e-18 0)
(4.12193 9.3798e-19 0)
(4.12478 8.6896e-19 0)
(4.12761 8.04993e-19 0)
(4.13043 7.43802e-19 0)
(4.13323 6.83551e-19 0)
(4.13603 6.23095e-19 0)
(4.13881 5.61799e-19 0)
(4.14157 4.99031e-19 0)
(4.14433 4.34846e-19 0)
(4.14707 3.69101e-19 0)
(4.1498 3.02149e-19 0)
(4.15252 2.34008e-19 0)
(4.15522 1.65137e-19 0)
(4.15791 9.55903e-20 0)
(4.16059 2.57765e-20 0)
(4.16326 -4.39204e-20 0)
(4.16592 -1.13144e-19 0)
(4.16856 -1.81965e-19 0)
(4.17119 -2.50111e-19 0)
(4.17381 -3.1736e-19 0)
(4.17642 -3.83535e-19 0)
(4.17902 -4.48498e-19 0)
(4.18161 -5.12142e-19 0)
(4.18418 -5.74388e-19 0)
(4.18675 -6.35177e-19 0)
(4.1893 -6.94467e-19 0)
(4.19184 -7.52226e-19 0)
(4.19437 -8.08439e-19 0)
(4.19689 -8.63099e-19 0)
(4.1994 -9.1621e-19 0)
(4.2019 -9.67784e-19 0)
(4.20438 -1.01784e-18 0)
(4.20686 -1.06641e-18 0)
(4.20932 -1.11351e-18 0)
(4.21178 -1.15919e-18 0)
(4.21422 -1.20347e-18 0)
(4.21665 -1.24639e-18 0)
(4.21908 -1.28798e-18 0)
(4.22149 -1.3283e-18 0)
(4.22389 -1.36737e-18 0)
(4.22629 -1.40523e-18 0)
(4.22867 -1.44192e-18 0)
(4.23104 -1.47748e-18 0)
(4.2334 -1.51194e-18 0)
(4.23575 -1.54534e-18 0)
(4.23809 -1.57771e-18 0)
(4.24043 -1.60908e-18 0)
(4.24275 -1.6395e-18 0)
(4.24506 -1.66898e-18 0)
(4.24736 -1.69757e-18 0)
(4.24966 -1.72528e-18 0)
(4.25194 -1.75215e-18 0)
(4.25421 -1.77821e-18 0)
(4.25648 -1.80349e-18 0)
(4.25873 -1.828e-18 0)
(4.26097 -1.85178e-18 0)
(4.26321 -1.87485e-18 0)
(4.26544 -1.89724e-18 0)
(4.26765 -1.91896e-18 0)
(4.26986 -1.94003e-18 0)
(4.27206 -1.96048e-18 0)
(4.27424 -1.98032e-18 0)
(4.27642 -1.99959e-18 0)
(4.27859 -2.01796e-18 0)
(4.28076 -2.03544e-18 0)
(4.28291 -2.05241e-18 0)
(4.28505 -2.06883e-18 0)
(4.28718 -2.08471e-18 0)
(4.28931 -2.1001e-18 0)
(4.29142 -2.11467e-18 0)
(4.29353 -2.12847e-18 0)
(4.29563 -2.14148e-18 0)
(4.29772 -2.15408e-18 0)
(4.2998 -2.16624e-18 0)
(4.30187 -2.17802e-18 0)
(4.30393 -2.18908e-18 0)
(4.30599 -2.19947e-18 0)
(4.30803 -2.20918e-18 0)
(4.31007 -2.21858e-18 0)
(4.3121 -2.22767e-18 0)
(4.31412 -2.23612e-18 0)
(4.31613 -2.24396e-18 0)
(4.31813 -2.25122e-18 0)
(4.32012 -2.25788e-18 0)
(4.32211 -2.26431e-18 0)
(4.32408 -2.27017e-18 0)
(4.32605 -2.27548e-18 0)
(4.32801 -2.28025e-18 0)
(4.32996 -2.2845e-18 0)
(4.33191 -2.28822e-18 0)
(4.33384 -2.29145e-18 0)
(4.33577 -2.29418e-18 0)
(4.33768 -2.29644e-18 0)
(4.33959 -2.29824e-18 0)
(4.34149 -2.2996e-18 0)
(4.34338 -2.30053e-18 0)
(4.34527 -2.30105e-18 0)
(4.34714 -2.30118e-18 0)
(4.34901 -2.30091e-18 0)
(4.35087 -2.30028e-18 0)
(4.35272 -2.29929e-18 0)
(4.35457 -2.29796e-18 0)
(4.3564 -2.29629e-18 0)
(4.35823 -2.29431e-18 0)
(4.36004 -2.29202e-18 0)
(4.36185 -2.28944e-18 0)
(4.36366 -2.28657e-18 0)
(4.36545 -2.28342e-18 0)
(4.36724 -2.28002e-18 0)
(4.36901 -2.27636e-18 0)
(4.37078 -2.27247e-18 0)
(4.37254 -2.26834e-18 0)
(4.3743 -2.26399e-18 0)
(4.37604 -2.25943e-18 0)
(4.37778 -2.25466e-18 0)
(4.37951 -2.2497e-18 0)
(4.38123 -2.24456e-18 0)
(4.38294 -2.23924e-18 0)
(4.38465 -2.23375e-18 0)
(4.38634 -2.2281e-18 0)
(4.38803 -2.22229e-18 0)
(4.38971 -2.21634e-18 0)
(4.39139 -2.21025e-18 0)
(4.39305 -2.20402e-18 0)
(4.39471 -2.19767e-18 0)
(4.39636 -2.19121e-18 0)
(4.398 -2.18462e-18 0)
(4.39963 -2.17793e-18 0)
(4.40125 -2.17114e-18 0)
(4.40287 -2.16426e-18 0)
(4.40448 -2.15728e-18 0)
(4.40608 -2.15022e-18 0)
(4.40767 -2.14307e-18 0)
(4.40925 -2.13585e-18 0)
(4.41083 -2.12856e-18 0)
(4.4124 -2.1212e-18 0)
(4.41396 -2.11378e-18 0)
(4.41551 -2.10629e-18 0)
(4.41706 -2.09876e-18 0)
(4.41859 -2.09117e-18 0)
(4.42012 -2.08353e-18 0)
(4.42164 -2.07584e-18 0)
(4.42315 -2.06812e-18 0)
(4.42465 -2.06035e-18 0)
(4.42615 -2.05255e-18 0)
(4.42764 -2.04471e-18 0)
(4.42912 -2.03685e-18 0)
(4.43059 -2.02895e-18 0)
(4.43205 -2.02103e-18 0)
(4.43351 -2.01308e-18 0)
(4.43495 -2.00511e-18 0)
(4.43639 -1.99712e-18 0)
(4.43782 -1.98912e-18 0)
(4.43925 -1.98109e-18 0)
(4.44066 -1.97305e-18 0)
(4.44207 -1.965e-18 0)
(4.44346 -1.95694e-18 0)
(4.44485 -1.94886e-18 0)
(4.44624 -1.94078e-18 0)
(4.44761 -1.93268e-18 0)
(4.44897 -1.92459e-18 0)
(4.45033 -1.91648e-18 0)
(4.45168 -1.90837e-18 0)
(4.45302 -1.90026e-18 0)
(4.45435 -1.89214e-18 0)
(4.45567 -1.88402e-18 0)
(4.45699 -1.8759e-18 0)
(4.4583 -1.86778e-18 0)
(4.45959 -1.85966e-18 0)
(4.46088 -1.85154e-18 0)
(4.46216 -1.84343e-18 0)
(4.46344 -1.83531e-18 0)
(4.4647 -1.82719e-18 0)
(4.46596 -1.81908e-18 0)
(4.4672 -1.81097e-18 0)
(4.46844 -1.80287e-18 0)
(4.46967 -1.79477e-18 0)
(4.47089 -1.78667e-18 0)
(4.47211 -1.77858e-18 0)
(4.47331 -1.77049e-18 0)
(4.47451 -1.76241e-18 0)
(4.47569 -1.75433e-18 0)
(4.47687 -1.74626e-18 0)
(4.47804 -1.73819e-18 0)
(4.4792 -1.73013e-18 0)
(4.48035 -1.72208e-18 0)
(4.48149 -1.71403e-18 0)
(4.48263 -1.70599e-18 0)
(4.48375 -1.69795e-18 0)
(4.48487 -1.68992e-18 0)
(4.48597 -1.6819e-18 0)
(4.48707 -1.67388e-18 0)
(4.48816 -1.66587e-18 0)
(4.48924 -1.65786e-18 0)
(4.49031 -1.64987e-18 0)
(4.49137 -1.64187e-18 0)
(4.49242 -1.63389e-18 0)
(4.49346 -1.62591e-18 0)
(4.4945 -1.61794e-18 0)
(4.49552 -1.60997e-18 0)
(4.49653 -1.60201e-18 0)
(4.49754 -1.59406e-18 0)
(4.49853 -1.58612e-18 0)
(4.49952 -1.57818e-18 0)
(4.5005 -1.57024e-18 0)
(4.50146 -1.56232e-18 0)
(4.50242 -1.5544e-18 0)
(4.50337 -1.54649e-18 0)
(4.5043 -1.53858e-18 0)
(4.50523 -1.53068e-18 0)
(4.50615 -1.52279e-18 0)
(4.50706 -1.5149e-18 0)
(4.50796 -1.50702e-18 0)
(4.50884 -1.49915e-18 0)
(4.50972 -1.49128e-18 0)
(4.51059 -1.48342e-18 0)
(4.51145 -1.47557e-18 0)
(4.51229 -1.46772e-18 0)
(4.51313 -1.45988e-18 0)
(4.51396 -1.45205e-18 0)
(4.51477 -1.44422e-18 0)
(4.51558 -1.4364e-18 0)
(4.51638 -1.42859e-18 0)
(4.51716 -1.42078e-18 0)
(4.51794 -1.41298e-18 0)
(4.5187 -1.40519e-18 0)
(4.51945 -1.3974e-18 0)
(4.5202 -1.38963e-18 0)
(4.52093 -1.38186e-18 0)
(4.52165 -1.37409e-18 0)
(4.52236 -1.36634e-18 0)
(4.52306 -1.35859e-18 0)
(4.52374 -1.35085e-18 0)
(4.52442 -1.34312e-18 0)
(4.52509 -1.3354e-18 0)
(4.52574 -1.32768e-18 0)
(4.52638 -1.31997e-18 0)
(4.52702 -1.31228e-18 0)
(4.52764 -1.30459e-18 0)
(4.52824 -1.29691e-18 0)
(4.52884 -1.28923e-18 0)
(4.52943 -1.28157e-18 0)
(4.53 -1.27392e-18 0)
(4.53056 -1.26628e-18 0)
(4.53111 -1.25864e-18 0)
(4.53165 -1.25102e-18 0)
(4.53218 -1.24341e-18 0)
(4.5327 -1.23581e-18 0)
(4.5332 -1.22821e-18 0)
(4.53369 -1.22063e-18 0)
(4.53417 -1.21307e-18 0)
(4.53463 -1.20551e-18 0)
(4.53509 -1.19797e-18 0)
(4.53553 -1.19043e-18 0)
(4.53596 -1.18291e-18 0)
(4.53638 -1.17541e-18 0)
(4.53678 -1.16791e-18 0)
(4.53718 -1.16043e-18 0)
(4.53756 -1.15297e-18 0)
(4.53792 -1.14552e-18 0)
(4.53828 -1.13808e-18 0)
(4.53862 -1.13066e-18 0)
(4.53895 -1.12325e-18 0)
(4.53927 -1.11586e-18 0)
(4.53957 -1.10848e-18 0)
(4.53986 -1.10112e-18 0)
(4.54014 -1.09378e-18 0)
(4.5404 -1.08646e-18 0)
(4.54065 -1.07915e-18 0)
(4.54089 -1.07186e-18 0)
(4.54112 -1.06459e-18 0)
(4.54133 -1.05734e-18 0)
(4.54153 -1.0501e-18 0)
(4.54172 -1.04289e-18 0)
(4.54189 -1.0357e-18 0)
(4.54205 -1.02853e-18 0)
(4.5422 -1.02138e-18 0)
(4.54233 -1.01425e-18 0)
(4.54245 -1.00713e-18 0)
(4.54256 -1.00002e-18 0)
(4.54265 -9.92934e-19 0)
(4.54273 -9.85869e-19 0)
(4.5428 -9.78828e-19 0)
(4.54285 -9.71803e-19 0)
(4.54289 -9.64793e-19 0)
(4.54292 -9.57801e-19 0)
(4.54293 -9.50826e-19 0)
(4.54293 -9.43869e-19 0)
(4.54292 -9.36931e-19 0)
(4.54289 -9.30011e-19 0)
(4.54285 -9.2311e-19 0)
(4.5428 -9.16228e-19 0)
(4.54273 -9.09366e-19 0)
(4.54265 -9.02531e-19 0)
(4.54256 -8.95708e-19 0)
(4.54245 -8.88913e-19 0)
(4.54233 -8.82145e-19 0)
(4.5422 -8.75402e-19 0)
(4.54205 -8.68688e-19 0)
(4.54189 -8.62002e-19 0)
(4.54172 -8.55346e-19 0)
(4.54153 -8.48719e-19 0)
(4.54133 -8.42123e-19 0)
(4.54112 -8.35558e-19 0)
(4.54089 -8.29024e-19 0)
(4.54065 -8.22522e-19 0)
(4.5404 -8.16051e-19 0)
(4.54014 -8.09613e-19 0)
(4.53986 -8.03207e-19 0)
(4.53957 -7.96834e-19 0)
(4.53927 -7.90493e-19 0)
(4.53895 -7.84186e-19 0)
(4.53862 -7.77913e-19 0)
(4.53828 -7.71673e-19 0)
(4.53792 -7.65467e-19 0)
(4.53756 -7.59295e-19 0)
(4.53718 -7.53157e-19 0)
(4.53678 -7.47053e-19 0)
(4.53638 -7.40985e-19 0)
(4.53596 -7.34951e-19 0)
(4.53553 -7.28952e-19 0)
(4.53509 -7.22988e-19 0)
(4.53463 -7.17059e-19 0)
(4.53417 -7.11166e-19 0)
(4.53369 -7.05308e-19 0)
(4.5332 -6.99485e-19 0)
(4.5327 -6.93698e-19 0)
(4.53218 -6.87947e-19 0)
(4.53165 -6.82232e-19 0)
(4.53111 -6.76552e-19 0)
(4.53056 -6.70908e-19 0)
(4.53 -6.65301e-19 0)
(4.52943 -6.59729e-19 0)
(4.52884 -6.54193e-19 0)
(4.52824 -6.48694e-19 0)
(4.52764 -6.4323e-19 0)
(4.52702 -6.37802e-19 0)
(4.52638 -6.32411e-19 0)
(4.52574 -6.27056e-19 0)
(4.52509 -6.21736e-19 0)
(4.52442 -6.16453e-19 0)
(4.52374 -6.11205e-19 0)
(4.52306 -6.05994e-19 0)
(4.52236 -6.00819e-19 0)
(4.52165 -5.95679e-19 0)
(4.52093 -5.90575e-19 0)
(4.5202 -5.85507e-19 0)
(4.51945 -5.80474e-19 0)
(4.5187 -5.75477e-19 0)
(4.51794 -5.70516e-19 0)
(4.51716 -5.6559e-19 0)
(4.51638 -5.607e-19 0)
(4.51558 -5.55844e-19 0)
(4.51478 -5.51024e-19 0)
(4.51396 -5.46239e-19 0)
(4.51313 -5.41488e-19 0)
(4.51229 -5.36773e-19 0)
(4.51145 -5.32092e-19 0)
(4.51059 -5.27446e-19 0)
(4.50972 -5.22834e-19 0)
(4.50884 -5.18257e-19 0)
(4.50796 -5.13713e-19 0)
(4.50706 -5.09204e-19 0)
(4.50615 -5.04729e-19 0)
(4.50523 -5.00287e-19 0)
(4.5043 -4.95879e-19 0)
(4.50337 -4.91505e-19 0)
(4.50242 -4.87164e-19 0)
(4.50146 -4.82856e-19 0)
(4.5005 -4.78581e-19 0)
(4.49952 -4.74339e-19 0)
(4.49853 -4.70129e-19 0)
(4.49754 -4.65953e-19 0)
(4.49653 -4.61808e-19 0)
(4.49552 -4.57696e-19 0)
(4.4945 -4.53616e-19 0)
(4.49346 -4.49567e-19 0)
(4.49242 -4.45551e-19 0)
(4.49137 -4.41566e-19 0)
(4.49031 -4.37612e-19 0)
(4.48924 -4.33689e-19 0)
(4.48816 -4.29798e-19 0)
(4.48707 -4.25937e-19 0)
(4.48597 -4.22107e-19 0)
(4.48487 -4.18308e-19 0)
(4.48375 -4.14538e-19 0)
(4.48263 -4.10799e-19 0)
(4.48149 -4.0709e-19 0)
(4.48035 -4.03411e-19 0)
(4.4792 -3.99761e-19 0)
(4.47804 -3.96141e-19 0)
(4.47687 -3.9255e-19 0)
(4.47569 -3.88988e-19 0)
(4.47451 -3.85454e-19 0)
(4.47331 -3.8195e-19 0)
(4.47211 -3.78474e-19 0)
(4.47089 -3.75026e-19 0)
(4.46967 -3.71607e-19 0)
(4.46844 -3.68216e-19 0)
(4.4672 -3.64852e-19 0)
(4.46596 -3.61516e-19 0)
(4.4647 -3.58207e-19 0)
(4.46344 -3.54926e-19 0)
(4.46216 -3.51671e-19 0)
(4.46088 -3.48444e-19 0)
(4.45959 -3.45243e-19 0)
(4.4583 -3.42069e-19 0)
(4.45699 -3.38921e-19 0)
(4.45567 -3.35799e-19 0)
(4.45435 -3.32704e-19 0)
(4.45302 -3.29634e-19 0)
(4.45168 -3.2659e-19 0)
(4.45033 -3.23571e-19 0)
(4.44897 -3.20578e-19 0)
(4.44761 -3.17609e-19 0)
(4.44624 -3.14666e-19 0)
(4.44485 -3.11747e-19 0)
(4.44346 -3.08853e-19 0)
(4.44207 -3.05984e-19 0)
(4.44066 -3.03138e-19 0)
(4.43925 -3.00317e-19 0)
(4.43782 -2.9752e-19 0)
(4.43639 -2.94746e-19 0)
(4.43495 -2.91996e-19 0)
(4.43351 -2.8927e-19 0)
(4.43205 -2.86566e-19 0)
(4.43059 -2.83886e-19 0)
(4.42912 -2.81228e-19 0)
(4.42764 -2.78594e-19 0)
(4.42615 -2.75982e-19 0)
(4.42465 -2.73392e-19 0)
(4.42315 -2.70825e-19 0)
(4.42164 -2.68279e-19 0)
(4.42012 -2.65756e-19 0)
(4.41859 -2.63254e-19 0)
(4.41706 -2.60774e-19 0)
(4.41551 -2.58315e-19 0)
(4.41396 -2.55878e-19 0)
(4.4124 -2.53462e-19 0)
(4.41083 -2.51067e-19 0)
(4.40925 -2.48692e-19 0)
(4.40767 -2.46338e-19 0)
(4.40608 -2.44005e-19 0)
(4.40448 -2.41692e-19 0)
(4.40287 -2.394e-19 0)
(4.40125 -2.37127e-19 0)
(4.39963 -2.34874e-19 0)
(4.398 -2.32641e-19 0)
(4.39636 -2.30428e-19 0)
(4.39471 -2.28234e-19 0)
(4.39305 -2.26059e-19 0)
(4.39139 -2.23904e-19 0)
(4.38971 -2.21767e-19 0)
(4.38803 -2.1965e-19 0)
(4.38634 -2.17551e-19 0)
(4.38465 -2.15471e-19 0)
(4.38294 -2.13409e-19 0)
(4.38123 -2.11365e-19 0)
(4.37951 -2.0934e-19 0)
(4.37778 -2.07333e-19 0)
(4.37604 -2.05343e-19 0)
(4.3743 -2.03371e-19 0)
(4.37254 -2.01417e-19 0)
(4.37078 -1.99481e-19 0)
(4.36901 -1.97562e-19 0)
(4.36724 -1.95659e-19 0)
(4.36545 -1.93774e-19 0)
(4.36366 -1.91906e-19 0)
(4.36186 -1.90055e-19 0)
(4.36005 -1.88221e-19 0)
(4.35823 -1.86403e-19 0)
(4.3564 -1.84601e-19 0)
(4.35457 -1.82816e-19 0)
(4.35272 -1.81046e-19 0)
(4.35087 -1.79293e-19 0)
(4.34901 -1.77556e-19 0)
(4.34714 -1.75835e-19 0)
(4.34527 -1.74129e-19 0)
(4.34339 -1.72439e-19 0)
(4.34149 -1.70764e-19 0)
(4.33959 -1.69104e-19 0)
(4.33768 -1.6746e-19 0)
(4.33577 -1.6583e-19 0)
(4.33384 -1.64216e-19 0)
(4.33191 -1.62616e-19 0)
(4.32996 -1.61031e-19 0)
(4.32801 -1.59461e-19 0)
(4.32605 -1.57905e-19 0)
(4.32408 -1.56364e-19 0)
(4.32211 -1.54836e-19 0)
(4.32012 -1.53323e-19 0)
(4.31813 -1.51824e-19 0)
(4.31613 -1.50339e-19 0)
(4.31412 -1.48867e-19 0)
(4.3121 -1.47409e-19 0)
(4.31007 -1.45965e-19 0)
(4.30803 -1.44534e-19 0)
(4.30599 -1.43116e-19 0)
(4.30393 -1.41712e-19 0)
(4.30187 -1.40321e-19 0)
(4.2998 -1.38943e-19 0)
(4.29772 -1.37577e-19 0)
(4.29563 -1.36225e-19 0)
(4.29353 -1.34885e-19 0)
(4.29142 -1.33558e-19 0)
(4.28931 -1.32243e-19 0)
(4.28718 -1.3094e-19 0)
(4.28505 -1.2965e-19 0)
(4.28291 -1.28373e-19 0)
(4.28076 -1.27107e-19 0)
(4.27859 -1.25853e-19 0)
(4.27642 -1.24611e-19 0)
(4.27425 -1.23381e-19 0)
(4.27206 -1.22162e-19 0)
(4.26986 -1.20955e-19 0)
(4.26765 -1.1976e-19 0)
(4.26544 -1.18576e-19 0)
(4.26321 -1.17403e-19 0)
(4.26097 -1.16242e-19 0)
(4.25873 -1.15091e-19 0)
(4.25648 -1.13952e-19 0)
(4.25421 -1.12823e-19 0)
(4.25194 -1.11706e-19 0)
(4.24966 -1.10599e-19 0)
(4.24736 -1.09503e-19 0)
(4.24506 -1.08417e-19 0)
(4.24275 -1.07342e-19 0)
(4.24043 -1.06277e-19 0)
(4.23809 -1.05223e-19 0)
(4.23575 -1.04178e-19 0)
(4.2334 -1.03144e-19 0)
(4.23104 -1.0212e-19 0)
(4.22867 -1.01106e-19 0)
(4.22629 -1.00102e-19 0)
(4.22389 -9.91073e-20 0)
(4.22149 -9.81225e-20 0)
(4.21908 -9.71474e-20 0)
(4.21665 -9.61817e-20 0)
(4.21422 -9.52256e-20 0)
(4.21178 -9.42788e-20 0)
(4.20932 -9.33413e-20 0)
(4.20686 -9.2413e-20 0)
(4.20438 -9.14938e-20 0)
(4.2019 -9.05837e-20 0)
(4.1994 -8.96826e-20 0)
(4.19689 -8.87903e-20 0)
(4.19437 -8.79069e-20 0)
(4.19184 -8.70323e-20 0)
(4.1893 -8.61663e-20 0)
(4.18675 -8.53089e-20 0)
(4.18418 -8.446e-20 0)
(4.18161 -8.36196e-20 0)
(4.17902 -8.27875e-20 0)
(4.17642 -8.19638e-20 0)
(4.17381 -8.11482e-20 0)
(4.17119 -8.03409e-20 0)
(4.16856 -7.95416e-20 0)
(4.16592 -7.87503e-20 0)
(4.16326 -7.79669e-20 0)
(4.16059 -7.71915e-20 0)
(4.15791 -7.64238e-20 0)
(4.15522 -7.56639e-20 0)
(4.15252 -7.49116e-20 0)
(4.1498 -7.41669e-20 0)
(4.14707 -7.34297e-20 0)
(4.14433 -7.27001e-20 0)
(4.14157 -7.19778e-20 0)
(4.13881 -7.12628e-20 0)
(4.13603 -7.05551e-20 0)
(4.13323 -6.98546e-20 0)
(4.13043 -6.91612e-20 0)
(4.12761 -6.84749e-20 0)
(4.12478 -6.77957e-20 0)
(4.12193 -6.71233e-20 0)
(4.11907 -6.64579e-20 0)
(4.1162 -6.57992e-20 0)
(4.11332 -6.51474e-20 0)
(4.11042 -6.45022e-20 0)
(4.1075 -6.38637e-20 0)
(4.10458 -6.32317e-20 0)
(4.10163 -6.26063e-20 0)
(4.09868 -6.19873e-20 0)
(4.09571 -6.13747e-20 0)
(4.09272 -6.07685e-20 0)
(4.08972 -6.01685e-20 0)
(4.08671 -5.95748e-20 0)
(4.08368 -5.89873e-20 0)
(4.08064 -5.84058e-20 0)
(4.07758 -5.78305e-20 0)
(4.0745 -5.72611e-20 0)
(4.07141 -5.66977e-20 0)
(4.06831 -5.61402e-20 0)
(4.06519 -5.55885e-20 0)
(4.06205 -5.50426e-20 0)
(4.0589 -5.45024e-20 0)
(4.05573 -5.39679e-20 0)
(4.05254 -5.34391e-20 0)
(4.04934 -5.29158e-20 0)
(4.04612 -5.2398e-20 0)
(4.04288 -5.18857e-20 0)
(4.03963 -5.13789e-20 0)
(4.03636 -5.08774e-20 0)
(4.03307 -5.03812e-20 0)
(4.02977 -4.98903e-20 0)
(4.02644 -4.94047e-20 0)
(4.0231 -4.89242e-20 0)
(4.01974 -4.84488e-20 0)
(4.01636 -4.79785e-20 0)
(4.01297 -4.75133e-20 0)
(4.00955 -4.7053e-20 0)
(4.00612 -4.65976e-20 0)
(4.00266 -4.61472e-20 0)
(3.99919 -4.57016e-20 0)
(3.9957 -4.52608e-20 0)
(3.99219 -4.48247e-20 0)
(3.98865 -4.43934e-20 0)
(3.9851 -4.39667e-20 0)
(3.98153 -4.35446e-20 0)
(3.97793 -4.31271e-20 0)
(3.97432 -4.27142e-20 0)
(3.97068 -4.23057e-20 0)
(3.96702 -4.19017e-20 0)
(3.96334 -4.15021e-20 0)
(3.95964 -4.11068e-20 0)
(3.95591 -4.07159e-20 0)
(3.95217 -4.03292e-20 0)
(3.94839 -3.99468e-20 0)
(3.9446 -3.95686e-20 0)
(3.94078 -3.91945e-20 0)
(3.93694 -3.88245e-20 0)
(3.93308 -3.84586e-20 0)
(3.92918 -3.80968e-20 0)
(3.92527 -3.77389e-20 0)
(3.92133 -3.7385e-20 0)
(3.91736 -3.70351e-20 0)
(3.91337 -3.6689e-20 0)
(3.90935 -3.63467e-20 0)
(3.90531 -3.60083e-20 0)
(3.90124 -3.56736e-20 0)
(3.89714 -3.53426e-20 0)
(3.89301 -3.50154e-20 0)
(3.88885 -3.46918e-20 0)
(3.88467 -3.43718e-20 0)
(3.88046 -3.40554e-20 0)
(3.87621 -3.37426e-20 0)
(3.87194 -3.34332e-20 0)
(3.86764 -3.31274e-20 0)
(3.86331 -3.2825e-20 0)
(3.85894 -3.2526e-20 0)
(3.85454 -3.22304e-20 0)
(3.85012 -3.19381e-20 0)
(3.84565 -3.16491e-20 0)
(3.84116 -3.13634e-20 0)
(3.83663 -3.10809e-20 0)
(3.83207 -3.08017e-20 0)
(3.82747 -3.05256e-20 0)
(3.82284 -3.02527e-20 0)
(3.81817 -2.99828e-20 0)
(3.81347 -2.97161e-20 0)
(3.80872 -2.94524e-20 0)
(3.80394 -2.91917e-20 0)
(3.79912 -2.8934e-20 0)
(3.79426 -2.86792e-20 0)
(3.78937 -2.84273e-20 0)
(3.78443 -2.81784e-20 0)
(3.77945 -2.79323e-20 0)
(3.77443 -2.7689e-20 0)
(3.76936 -2.74485e-20 0)
(3.76425 -2.72108e-20 0)
(3.7591 -2.69758e-20 0)
(3.75391 -2.67435e-20 0)
(3.74866 -2.65139e-20 0)
(3.74337 -2.6287e-20 0)
(3.73803 -2.60627e-20 0)
(3.73265 -2.58409e-20 0)
(3.72721 -2.56217e-20 0)
(3.72173 -2.54051e-20 0)
(3.71619 -2.51909e-20 0)
(3.7106 -2.49792e-20 0)
(3.70495 -2.477e-20 0)
(3.69925 -2.45631e-20 0)
(3.6935 -2.43587e-20 0)
(3.68769 -2.41566e-20 0)
(3.68182 -2.39568e-20 0)
(3.67589 -2.37594e-20 0)
(3.6699 -2.35642e-20 0)
(3.66385 -2.33713e-20 0)
(3.65773 -2.31805e-20 0)
(3.65155 -2.2992e-20 0)
(3.6453 -2.28056e-20 0)
(3.63899 -2.26214e-20 0)
(3.63261 -2.24392e-20 0)
(3.62615 -2.22591e-20 0)
(3.61963 -2.20811e-20 0)
(3.61303 -2.19051e-20 0)
(3.60635 -2.17311e-20 0)
(3.5996 -2.1559e-20 0)
(3.59276 -2.13889e-20 0)
(3.58585 -2.12207e-20 0)
(3.57885 -2.10543e-20 0)
(3.57176 -2.08898e-20 0)
(3.56459 -2.07272e-20 0)
(3.55732 -2.05663e-20 0)
(3.54997 -2.04071e-20 0)
(3.54252 -2.02497e-20 0)
(3.53497 -2.0094e-20 0)
(3.52732 -1.994e-20 0)
(3.51956 -1.97876e-20 0)
(3.5117 -1.96368e-20 0)
(3.50374 -1.94876e-20 0)
(3.49565 -1.93399e-20 0)
(3.48746 -1.91937e-20 0)
(3.47914 -1.9049e-20 0)
(3.47071 -1.89058e-20 0)
(3.46214 -1.8764e-20 0)
(3.45345 -1.86235e-20 0)
(3.44462 -1.84844e-20 0)
(3.43565 -1.83466e-20 0)
(3.42654 -1.82101e-20 0)
(3.41728 -1.80747e-20 0)
(3.40787 -1.79406e-20 0)
(3.3983 -1.78077e-20 0)
(3.38857 -1.76758e-20 0)
(3.37867 -1.75451e-20 0)
(3.36859 -1.74153e-20 0)
(3.35833 -1.72866e-20 0)
(3.34788 -1.71587e-20 0)
(3.33724 -1.70318e-20 0)
(3.32639 -1.69057e-20 0)
(3.31534 -1.67804e-20 0)
(3.30406 -1.66559e-20 0)
(3.29256 -1.6532e-20 0)
(3.28081 -1.64088e-20 0)
(3.26882 -1.62861e-20 0)
(3.25657 -1.61639e-20 0)
(3.24406 -1.60422e-20 0)
(3.23125 -1.59208e-20 0)
(3.21816 -1.57997e-20 0)
(3.20475 -1.56789e-20 0)
(3.19102 -1.55581e-20 0)
(3.17695 -1.54375e-20 0)
(3.16253 -1.53167e-20 0)
(3.14773 -1.51959e-20 0)
(3.13253 -1.50748e-20 0)
(3.11692 -1.49533e-20 0)
(3.10086 -1.48314e-20 0)
(3.08434 -1.47089e-20 0)
(3.06733 -1.45856e-20 0)
(3.0498 -1.44615e-20 0)
(3.03171 -1.43363e-20 0)
(3.01303 -1.42098e-20 0)
(2.99372 -1.4082e-20 0)
(2.97374 -1.39525e-20 0)
(2.95304 -1.38212e-20 0)
(2.93156 -1.36878e-20 0)
(2.90926 -1.3552e-20 0)
(2.88605 -1.34135e-20 0)
(2.86188 -1.3272e-20 0)
(2.83666 -1.3127e-20 0)
(2.8103 -1.29782e-20 0)
(2.78269 -1.28251e-20 0)
(2.75371 -1.2667e-20 0)
(2.72324 -1.25035e-20 0)
(2.6911 -1.23337e-20 0)
(2.65712 -1.21568e-20 0)
(2.6211 -1.19719e-20 0)
(2.58277 -1.17779e-20 0)
(2.54186 -1.15733e-20 0)
(2.498 -1.13566e-20 0)
(2.45078 -1.11259e-20 0)
(2.39969 -1.08788e-20 0)
(2.3441 -1.06126e-20 0)
(2.28324 -1.03238e-20 0)
(2.21615 -1.00079e-20 0)
(2.14159 -9.65955e-21 0)
(2.05802 -9.27168e-21 0)
(1.96347 -8.8355e-21 0)
(1.85546 -8.33991e-21 0)
(1.73099 -7.77152e-21 0)
(1.58676 -7.11577e-21 0)
(1.42004 -6.36058e-21 0)
(1.23033 -5.50419e-21 0)
(1.02125 -4.56325e-21 0)
(0.799861 -3.56973e-21 0)
(0.572954 -2.55405e-21 0)
(0.344246 -1.53277e-21 0)
(0.114902 -5.109e-22 0)
)
;

boundaryField
{
    top_wall
    {
        type            noSlip;
    }
    inlet
    {
        type            cyclic;
    }
    bot_wall
    {
        type            noSlip;
    }
    outlet
    {
        type            cyclic;
    }
    frontAndBack
    {
        type            empty;
    }
}


// ************************************************************************* //
