/*--------------------------------*- C++ -*----------------------------------*\
| =========                 |                                                 |
| \\      /  F ield         | OpenFOAM: The Open Source CFD Toolbox           |
|  \\    /   O peration     | Version:  2406                                  |
|   \\  /    A nd           | Website:  www.openfoam.com                      |
|    \\/     M anipulation  |                                                 |
\*---------------------------------------------------------------------------*/
FoamFile
{
    version     2.0;
    format      ascii;
    arch        "LSB;label=32;scalar=64";
    class       volScalarField;
    location    "22.855";
    object      epsilon;
}
// * * * * * * * * * * * * * * * * * * * * * * * * * * * * * * * * * * * * * //

dimensions      [0 2 -3 0 0 0 0];

internalField   nonuniform List<scalar> 
1000
(
8.84919
4.66988
3.26378
2.63311
2.26237
2.00629
1.81309
1.65955
1.5333
1.42699
1.33585
1.2566
1.18692
1.12505
1.06969
1.0198
0.974577
0.933361
0.89562
0.860916
0.828882
0.79921
0.771639
0.745946
0.72194
0.699455
0.678346
0.658487
0.639767
0.622089
0.605366
0.589521
0.574484
0.560193
0.546595
0.533637
0.521276
0.50947
0.498182
0.487377
0.477026
0.467099
0.45757
0.448417
0.439615
0.431146
0.422991
0.415132
0.407553
0.400239
0.393177
0.386353
0.379756
0.373374
0.367197
0.361215
0.355419
0.3498
0.34435
0.339061
0.333927
0.328941
0.324096
0.319387
0.314807
0.310352
0.306016
0.301794
0.297683
0.293677
0.289774
0.285968
0.282256
0.278636
0.275102
0.271653
0.268286
0.264996
0.261783
0.258642
0.255572
0.252571
0.249635
0.246763
0.243953
0.241203
0.238511
0.235874
0.233292
0.230763
0.228284
0.225855
0.223474
0.22114
0.218851
0.216605
0.214403
0.212241
0.21012
0.208038
0.205994
0.203987
0.202016
0.20008
0.198178
0.196309
0.194472
0.192667
0.190892
0.189148
0.187432
0.185744
0.184084
0.182451
0.180845
0.179264
0.177707
0.176176
0.174668
0.173183
0.171721
0.170281
0.168862
0.167465
0.166089
0.164732
0.163395
0.162078
0.160779
0.159499
0.158236
0.156992
0.155764
0.154553
0.153359
0.152181
0.151019
0.149872
0.14874
0.147623
0.14652
0.145432
0.144357
0.143296
0.142249
0.141214
0.140193
0.139183
0.138187
0.137202
0.136229
0.135267
0.134317
0.133378
0.13245
0.131532
0.130625
0.129729
0.128842
0.127966
0.127099
0.126241
0.125393
0.124555
0.123725
0.122904
0.122092
0.121288
0.120492
0.119705
0.118926
0.118155
0.117392
0.116636
0.115888
0.115147
0.114413
0.113687
0.112968
0.112255
0.111549
0.11085
0.110158
0.109472
0.108792
0.108118
0.107451
0.106789
0.106133
0.105483
0.104839
0.104201
0.103568
0.10294
0.102318
0.101701
0.101089
0.100482
0.0998807
0.0992839
0.0986919
0.0981047
0.0975221
0.0969442
0.0963708
0.0958019
0.0952374
0.0946773
0.0941213
0.0935696
0.0930221
0.0924786
0.0919391
0.0914035
0.0908718
0.090344
0.0898199
0.0892996
0.0887829
0.0882698
0.0877602
0.0872542
0.0867516
0.0862524
0.0857565
0.0852639
0.0847746
0.0842885
0.0838056
0.0833257
0.0828489
0.0823752
0.0819044
0.0814366
0.0809716
0.0805096
0.0800503
0.0795938
0.0791401
0.0786891
0.0782407
0.077795
0.0773518
0.0769112
0.0764732
0.0760376
0.0756045
0.0751739
0.0747456
0.0743197
0.0738961
0.0734749
0.0730559
0.0726392
0.0722247
0.0718123
0.0714022
0.0709942
0.0705883
0.0701845
0.0697828
0.0693831
0.0689854
0.0685897
0.068196
0.0678042
0.0674144
0.0670264
0.0666404
0.0662562
0.0658738
0.0654933
0.0651146
0.0647377
0.0643625
0.0639891
0.0636174
0.0632474
0.0628791
0.0625125
0.0621476
0.0617843
0.0614227
0.0610627
0.0607043
0.0603474
0.0599922
0.0596385
0.0592863
0.0589357
0.0585867
0.0582391
0.0578931
0.0575485
0.0572054
0.0568638
0.0565236
0.0561849
0.0558476
0.0555118
0.0551774
0.0548443
0.0545127
0.0541825
0.0538537
0.0535262
0.0532002
0.0528755
0.0525521
0.0522301
0.0519094
0.0515901
0.0512721
0.0509555
0.0506401
0.0503261
0.0500134
0.0497021
0.049392
0.0490832
0.0487757
0.0484695
0.0481646
0.047861
0.0475587
0.0472577
0.0469579
0.0466595
0.0463623
0.0460664
0.0457717
0.0454784
0.0451863
0.0448955
0.044606
0.0443177
0.0440307
0.043745
0.0434606
0.0431774
0.0428956
0.042615
0.0423357
0.0420576
0.0417809
0.0415054
0.0412313
0.0409584
0.0406868
0.0404165
0.0401475
0.0398799
0.0396135
0.0393484
0.0390847
0.0388223
0.0385611
0.0383014
0.0380429
0.0377858
0.03753
0.0372756
0.0370225
0.0367708
0.0365204
0.0362714
0.0360238
0.0357775
0.0355327
0.0352892
0.0350471
0.0348064
0.0345672
0.0343293
0.0340929
0.0338579
0.0336243
0.0333922
0.0331615
0.0329322
0.0327045
0.0324782
0.0322534
0.0320301
0.0318082
0.0315879
0.0313691
0.0311518
0.030936
0.0307217
0.030509
0.0302978
0.0300882
0.0298802
0.0296737
0.0294688
0.0292655
0.0290638
0.0288638
0.0286653
0.0284684
0.0282732
0.0280796
0.0278877
0.0276974
0.0275088
0.0273219
0.0271366
0.026953
0.0267712
0.026591
0.0264125
0.0262358
0.0260608
0.0258876
0.0257161
0.0255463
0.0253783
0.0252121
0.0250477
0.0248851
0.0247242
0.0245652
0.0244079
0.0242525
0.0240989
0.0239472
0.0237973
0.0236492
0.023503
0.0233587
0.0232162
0.0230756
0.0229369
0.0228001
0.0226652
0.0225321
0.022401
0.0222718
0.0221446
0.0220192
0.0218958
0.0217744
0.0216549
0.0215373
0.0214217
0.0213081
0.0211964
0.0210867
0.020979
0.0208733
0.0207696
0.0206679
0.0205681
0.0204704
0.0203747
0.0202811
0.0201894
0.0200998
0.0200122
0.0199266
0.0198431
0.0197617
0.0196823
0.0196049
0.0195297
0.0194564
0.0193853
0.0193163
0.0192493
0.0191844
0.0191216
0.019061
0.0190024
0.0189459
0.0188916
0.0188394
0.0187893
0.0187413
0.0186955
0.0186518
0.0186102
0.0185708
0.0185336
0.0184985
0.0184656
0.0184349
0.0184063
0.0183799
0.0183557
0.0183337
0.0183138
0.0182962
0.0182808
0.0182675
0.0182565
0.0182477
0.018241
0.0182366
0.0182344
0.0182344
0.0182366
0.018241
0.0182477
0.0182565
0.0182675
0.0182808
0.0182962
0.0183138
0.0183337
0.0183557
0.0183799
0.0184063
0.0184349
0.0184656
0.0184985
0.0185336
0.0185708
0.0186102
0.0186518
0.0186955
0.0187413
0.0187893
0.0188394
0.0188916
0.0189459
0.0190024
0.019061
0.0191216
0.0191844
0.0192493
0.0193163
0.0193853
0.0194565
0.0195297
0.0196049
0.0196823
0.0197617
0.0198431
0.0199266
0.0200122
0.0200998
0.0201894
0.0202811
0.0203747
0.0204704
0.0205681
0.0206679
0.0207696
0.0208733
0.020979
0.0210867
0.0211964
0.0213081
0.0214217
0.0215373
0.0216549
0.0217744
0.0218958
0.0220192
0.0221446
0.0222718
0.022401
0.0225321
0.0226652
0.0228001
0.0229369
0.0230756
0.0232162
0.0233587
0.023503
0.0236492
0.0237973
0.0239472
0.0240989
0.0242525
0.0244079
0.0245652
0.0247242
0.0248851
0.0250477
0.0252121
0.0253783
0.0255463
0.0257161
0.0258876
0.0260608
0.0262358
0.0264125
0.026591
0.0267712
0.026953
0.0271366
0.0273219
0.0275088
0.0276974
0.0278877
0.0280796
0.0282732
0.0284684
0.0286653
0.0288638
0.0290639
0.0292656
0.0294688
0.0296737
0.0298802
0.0300882
0.0302978
0.030509
0.0307217
0.030936
0.0311518
0.0313691
0.0315879
0.0318082
0.0320301
0.0322534
0.0324782
0.0327045
0.0329323
0.0331615
0.0333922
0.0336243
0.0338579
0.0340929
0.0343293
0.0345672
0.0348064
0.0350471
0.0352892
0.0355327
0.0357775
0.0360238
0.0362714
0.0365204
0.0367708
0.0370225
0.0372756
0.03753
0.0377858
0.0380429
0.0383014
0.0385612
0.0388223
0.0390847
0.0393484
0.0396135
0.0398799
0.0401476
0.0404165
0.0406868
0.0409584
0.0412313
0.0415055
0.0417809
0.0420577
0.0423357
0.042615
0.0428956
0.0431775
0.0434606
0.043745
0.0440307
0.0443177
0.044606
0.0448955
0.0451863
0.0454784
0.0457718
0.0460664
0.0463623
0.0466595
0.046958
0.0472577
0.0475587
0.047861
0.0481647
0.0484695
0.0487757
0.0490832
0.049392
0.0497021
0.0500135
0.0503262
0.0506402
0.0509555
0.0512722
0.0515901
0.0519095
0.0522301
0.0525521
0.0528755
0.0532002
0.0535263
0.0538537
0.0541826
0.0545128
0.0548444
0.0551774
0.0555118
0.0558477
0.0561849
0.0565237
0.0568638
0.0572054
0.0575485
0.0578931
0.0582391
0.0585867
0.0589358
0.0592864
0.0596385
0.0599922
0.0603475
0.0607043
0.0610627
0.0614227
0.0617844
0.0621477
0.0625126
0.0628792
0.0632475
0.0636174
0.0639891
0.0643625
0.0647377
0.0651146
0.0654934
0.0658739
0.0662562
0.0666404
0.0670265
0.0674144
0.0678042
0.068196
0.0685897
0.0689854
0.0693831
0.0697828
0.0701845
0.0705883
0.0709942
0.0714022
0.0718124
0.0722247
0.0726392
0.0730559
0.0734749
0.0738962
0.0743197
0.0747456
0.0751739
0.0756046
0.0760377
0.0764732
0.0769113
0.0773519
0.077795
0.0782407
0.0786891
0.0791401
0.0795939
0.0800504
0.0805096
0.0809717
0.0814366
0.0819045
0.0823752
0.082849
0.0833258
0.0838056
0.0842886
0.0847747
0.085264
0.0857566
0.0862524
0.0867516
0.0872542
0.0877603
0.0882698
0.0887829
0.0892996
0.08982
0.090344
0.0908719
0.0914035
0.0919391
0.0924786
0.0930221
0.0935697
0.0941214
0.0946773
0.0952375
0.095802
0.0963709
0.0969443
0.0975222
0.0981047
0.0986919
0.0992839
0.0998807
0.100482
0.101089
0.101701
0.102318
0.10294
0.103568
0.104201
0.104839
0.105484
0.106133
0.106789
0.107451
0.108118
0.108792
0.109472
0.110158
0.11085
0.111549
0.112255
0.112968
0.113687
0.114414
0.115147
0.115888
0.116636
0.117392
0.118155
0.118926
0.119705
0.120492
0.121288
0.122092
0.122904
0.123725
0.124555
0.125393
0.126241
0.127099
0.127966
0.128842
0.129729
0.130626
0.131532
0.13245
0.133378
0.134317
0.135267
0.136229
0.137202
0.138187
0.139183
0.140193
0.141214
0.142249
0.143296
0.144357
0.145432
0.14652
0.147623
0.14874
0.149872
0.151019
0.152181
0.153359
0.154553
0.155764
0.156992
0.158236
0.159499
0.160779
0.162078
0.163395
0.164732
0.166089
0.167465
0.168862
0.170281
0.171721
0.173183
0.174668
0.176176
0.177707
0.179264
0.180845
0.182451
0.184084
0.185744
0.187432
0.189148
0.190892
0.192667
0.194472
0.196309
0.198178
0.20008
0.202016
0.203987
0.205994
0.208038
0.21012
0.212241
0.214403
0.216605
0.218851
0.22114
0.223474
0.225855
0.228284
0.230763
0.233292
0.235874
0.238511
0.241203
0.243953
0.246763
0.249635
0.252571
0.255572
0.258642
0.261783
0.264996
0.268286
0.271653
0.275102
0.278636
0.282256
0.285968
0.289774
0.293677
0.297683
0.301794
0.306015
0.310351
0.314807
0.319387
0.324096
0.328941
0.333927
0.339061
0.34435
0.349799
0.355419
0.361215
0.367197
0.373374
0.379756
0.386353
0.393177
0.400239
0.407553
0.415132
0.422991
0.431146
0.439615
0.448416
0.45757
0.467099
0.477026
0.487377
0.498182
0.50947
0.521276
0.533637
0.546595
0.560193
0.574483
0.58952
0.605366
0.622089
0.639767
0.658487
0.678345
0.699454
0.72194
0.745946
0.771639
0.79921
0.828882
0.860916
0.89562
0.933361
0.974577
1.0198
1.06969
1.12505
1.18692
1.2566
1.33585
1.42699
1.5333
1.65955
1.81309
2.00629
2.26237
2.63311
3.26378
4.66988
8.84918
)
;

boundaryField
{
    top_wall
    {
        type            epsilonWallFunction;
        blending        stepwise;
        value           uniform 8.84918;
    }
    inlet
    {
        type            cyclic;
    }
    bot_wall
    {
        type            epsilonWallFunction;
        blending        stepwise;
        value           uniform 8.84919;
    }
    outlet
    {
        type            cyclic;
    }
    frontAndBack
    {
        type            empty;
    }
}


// ************************************************************************* //
