/*--------------------------------*- C++ -*----------------------------------*\
| =========                 |                                                 |
| \\      /  F ield         | OpenFOAM: The Open Source CFD Toolbox           |
|  \\    /   O peration     | Version:  2406                                  |
|   \\  /    A nd           | Website:  www.openfoam.com                      |
|    \\/     M anipulation  |                                                 |
\*---------------------------------------------------------------------------*/
FoamFile
{
    version     2.0;
    format      ascii;
    arch        "LSB;label=32;scalar=64";
    class       volScalarField;
    location    "22.855";
    object      k;
}
// * * * * * * * * * * * * * * * * * * * * * * * * * * * * * * * * * * * * * //

dimensions      [0 2 -2 0 0 0 0];

internalField   nonuniform List<scalar> 
1000
(
0.0495834
0.0545345
0.0678336
0.0797983
0.0890498
0.0961345
0.101659
0.10606
0.109633
0.112579
0.115043
0.117124
0.1189
0.120426
0.121745
0.122892
0.123894
0.124771
0.125541
0.126219
0.126817
0.127344
0.127809
0.128218
0.128579
0.128895
0.129172
0.129414
0.129624
0.129805
0.129959
0.130089
0.130198
0.130286
0.130356
0.130409
0.130446
0.130469
0.130478
0.130475
0.130461
0.130436
0.130401
0.130357
0.130304
0.130243
0.130174
0.130099
0.130017
0.129928
0.129834
0.129735
0.12963
0.12952
0.129406
0.129287
0.129165
0.129038
0.128908
0.128775
0.128638
0.128498
0.128355
0.12821
0.128061
0.127911
0.127758
0.127602
0.127445
0.127285
0.127124
0.12696
0.126795
0.126628
0.12646
0.126289
0.126118
0.125945
0.125771
0.125595
0.125418
0.12524
0.125061
0.12488
0.124699
0.124517
0.124333
0.124149
0.123964
0.123778
0.123591
0.123403
0.123215
0.123026
0.122836
0.122645
0.122454
0.122262
0.122069
0.121876
0.121682
0.121487
0.121292
0.121097
0.120901
0.120704
0.120507
0.12031
0.120112
0.119913
0.119714
0.119515
0.119315
0.119114
0.118914
0.118713
0.118511
0.118309
0.118107
0.117904
0.117701
0.117498
0.117294
0.11709
0.116885
0.11668
0.116475
0.11627
0.116064
0.115857
0.115651
0.115444
0.115237
0.115029
0.114821
0.114613
0.114405
0.114196
0.113987
0.113777
0.113568
0.113358
0.113147
0.112937
0.112726
0.112514
0.112303
0.112091
0.111879
0.111666
0.111454
0.111241
0.111027
0.110814
0.1106
0.110385
0.110171
0.109956
0.109741
0.109525
0.109309
0.109093
0.108877
0.10866
0.108443
0.108226
0.108008
0.10779
0.107572
0.107353
0.107134
0.106915
0.106696
0.106476
0.106256
0.106035
0.105814
0.105593
0.105372
0.10515
0.104928
0.104705
0.104483
0.10426
0.104036
0.103813
0.103589
0.103364
0.103139
0.102914
0.102689
0.102463
0.102237
0.102011
0.101784
0.101557
0.10133
0.101102
0.100874
0.100646
0.100417
0.100188
0.0999583
0.0997286
0.0994984
0.0992679
0.0990371
0.0988059
0.0985744
0.0983425
0.0981103
0.0978777
0.0976448
0.0974115
0.0971778
0.0969439
0.0967095
0.0964748
0.0962397
0.0960043
0.0957686
0.0955324
0.095296
0.0950591
0.0948219
0.0945844
0.0943465
0.0941082
0.0938696
0.0936306
0.0933913
0.0931516
0.0929116
0.0926712
0.0924304
0.0921893
0.0919479
0.0917061
0.0914639
0.0912214
0.0909785
0.0907353
0.0904917
0.0902478
0.0900035
0.0897589
0.0895139
0.0892686
0.0890229
0.0887769
0.0885306
0.0882839
0.0880369
0.0877895
0.0875418
0.0872938
0.0870454
0.0867967
0.0865476
0.0862983
0.0860486
0.0857986
0.0855482
0.0852976
0.0850466
0.0847953
0.0845437
0.0842918
0.0840395
0.083787
0.0835341
0.083281
0.0830276
0.0827738
0.0825198
0.0822655
0.0820109
0.081756
0.0815008
0.0812453
0.0809896
0.0807336
0.0804774
0.0802208
0.0799641
0.079707
0.0794497
0.0791922
0.0789344
0.0786764
0.0784182
0.0781597
0.077901
0.0776421
0.0773829
0.0771236
0.076864
0.0766043
0.0763443
0.0760842
0.0758238
0.0755633
0.0753027
0.0750418
0.0747808
0.0745196
0.0742583
0.0739968
0.0737352
0.0734735
0.0732117
0.0729497
0.0726876
0.0724254
0.0721631
0.0719007
0.0716383
0.0713757
0.0711131
0.0708505
0.0705877
0.070325
0.0700621
0.0697993
0.0695365
0.0692736
0.0690107
0.0687478
0.068485
0.0682221
0.0679593
0.0676965
0.0674338
0.0671712
0.0669086
0.0666461
0.0663836
0.0661213
0.0658591
0.065597
0.065335
0.0650732
0.0648115
0.0645499
0.0642886
0.0640274
0.0637664
0.0635057
0.0632451
0.0629848
0.0627247
0.0624649
0.0622053
0.061946
0.061687
0.0614283
0.0611699
0.0609119
0.0606542
0.0603969
0.0601399
0.0598833
0.0596271
0.0593713
0.059116
0.058861
0.0586066
0.0583526
0.0580991
0.0578461
0.0575936
0.0573416
0.0570902
0.0568394
0.0565891
0.0563394
0.0560904
0.0558419
0.0555941
0.055347
0.0551006
0.0548548
0.0546098
0.0543655
0.0541219
0.0538791
0.0536371
0.0533959
0.0531556
0.052916
0.0526774
0.0524396
0.0522027
0.0519667
0.0517317
0.0514976
0.0512645
0.0510324
0.0508014
0.0505714
0.0503424
0.0501145
0.0498877
0.0496621
0.0494376
0.0492143
0.0489921
0.0487712
0.0485516
0.0483331
0.048116
0.0479002
0.0476857
0.0474726
0.0472608
0.0470504
0.0468415
0.046634
0.046428
0.0462235
0.0460205
0.0458191
0.0456192
0.045421
0.0452244
0.0450294
0.0448361
0.0446445
0.0444546
0.0442665
0.0440802
0.0438956
0.043713
0.0435321
0.0433532
0.0431762
0.0430011
0.042828
0.0426569
0.0424878
0.0423208
0.0421559
0.041993
0.0418323
0.0416738
0.0415175
0.0413634
0.0412115
0.0410619
0.0409146
0.0407697
0.0406271
0.0404868
0.040349
0.0402137
0.0400808
0.0399504
0.0398225
0.0396972
0.0395744
0.0394543
0.0393367
0.0392218
0.0391096
0.0390001
0.0388934
0.0387893
0.0386881
0.0385896
0.038494
0.0384012
0.0383113
0.0382243
0.0381402
0.038059
0.0379807
0.0379055
0.0378332
0.0377639
0.0376976
0.0376344
0.0375743
0.0375172
0.0374632
0.0374123
0.0373645
0.0373199
0.0372783
0.03724
0.0372048
0.0371728
0.0371439
0.0371182
0.0370958
0.0370765
0.0370604
0.0370476
0.0370379
0.0370315
0.0370283
0.0370283
0.0370315
0.0370379
0.0370476
0.0370604
0.0370765
0.0370958
0.0371182
0.0371439
0.0371728
0.0372048
0.03724
0.0372784
0.0373199
0.0373645
0.0374123
0.0374632
0.0375172
0.0375743
0.0376344
0.0376976
0.0377639
0.0378332
0.0379055
0.0379807
0.038059
0.0381402
0.0382243
0.0383113
0.0384012
0.038494
0.0385896
0.0386881
0.0387893
0.0388934
0.0390001
0.0391096
0.0392218
0.0393367
0.0394542
0.0395744
0.0396972
0.0398225
0.0399504
0.0400808
0.0402137
0.040349
0.0404868
0.040627
0.0407696
0.0409146
0.0410619
0.0412115
0.0413634
0.0415175
0.0416738
0.0418323
0.041993
0.0421559
0.0423208
0.0424878
0.0426569
0.042828
0.0430011
0.0431762
0.0433532
0.0435321
0.0437129
0.0438956
0.0440802
0.0442665
0.0444546
0.0446445
0.0448361
0.0450294
0.0452243
0.045421
0.0456192
0.0458191
0.0460205
0.0462235
0.046428
0.046634
0.0468415
0.0470504
0.0472608
0.0474725
0.0476857
0.0479002
0.048116
0.0483331
0.0485515
0.0487712
0.0489921
0.0492143
0.0494376
0.0496621
0.0498877
0.0501145
0.0503424
0.0505713
0.0508014
0.0510324
0.0512645
0.0514976
0.0517317
0.0519667
0.0522027
0.0524396
0.0526774
0.052916
0.0531556
0.0533959
0.0536371
0.0538791
0.0541219
0.0543655
0.0546098
0.0548548
0.0551006
0.055347
0.0555941
0.0558419
0.0560904
0.0563394
0.0565891
0.0568394
0.0570902
0.0573416
0.0575936
0.0578461
0.0580991
0.0583526
0.0586066
0.058861
0.0591159
0.0593713
0.0596271
0.0598833
0.0601399
0.0603969
0.0606542
0.0609119
0.0611699
0.0614283
0.061687
0.061946
0.0622053
0.0624649
0.0627247
0.0629848
0.0632451
0.0635057
0.0637664
0.0640274
0.0642886
0.0645499
0.0648115
0.0650731
0.065335
0.065597
0.0658591
0.0661213
0.0663836
0.0666461
0.0669086
0.0671712
0.0674338
0.0676965
0.0679593
0.0682221
0.068485
0.0687478
0.0690107
0.0692736
0.0695364
0.0697993
0.0700621
0.070325
0.0705877
0.0708504
0.0711131
0.0713757
0.0716383
0.0719007
0.0721631
0.0724254
0.0726876
0.0729497
0.0732117
0.0734735
0.0737352
0.0739968
0.0742583
0.0745196
0.0747808
0.0750418
0.0753026
0.0755633
0.0758238
0.0760842
0.0763443
0.0766043
0.076864
0.0771236
0.0773829
0.0776421
0.077901
0.0781597
0.0784182
0.0786764
0.0789344
0.0791922
0.0794497
0.079707
0.0799641
0.0802208
0.0804774
0.0807336
0.0809896
0.0812453
0.0815008
0.081756
0.0820108
0.0822655
0.0825198
0.0827738
0.0830276
0.083281
0.0835341
0.083787
0.0840395
0.0842918
0.0845437
0.0847953
0.0850466
0.0852976
0.0855482
0.0857986
0.0860486
0.0862983
0.0865476
0.0867967
0.0870454
0.0872938
0.0875418
0.0877895
0.0880369
0.0882839
0.0885306
0.0887769
0.0890229
0.0892686
0.0895139
0.0897589
0.0900035
0.0902478
0.0904917
0.0907353
0.0909785
0.0912214
0.0914639
0.0917061
0.0919479
0.0921893
0.0924304
0.0926712
0.0929116
0.0931516
0.0933913
0.0936306
0.0938696
0.0941082
0.0943465
0.0945844
0.0948219
0.0950591
0.095296
0.0955325
0.0957686
0.0960043
0.0962398
0.0964748
0.0967095
0.0969439
0.0971778
0.0974115
0.0976448
0.0978777
0.0981103
0.0983425
0.0985744
0.0988059
0.0990371
0.0992679
0.0994984
0.0997286
0.0999583
0.100188
0.100417
0.100646
0.100874
0.101102
0.10133
0.101557
0.101784
0.102011
0.102237
0.102463
0.102689
0.102914
0.103139
0.103364
0.103589
0.103813
0.104036
0.10426
0.104483
0.104705
0.104928
0.10515
0.105372
0.105593
0.105814
0.106035
0.106256
0.106476
0.106696
0.106915
0.107134
0.107353
0.107572
0.10779
0.108008
0.108226
0.108443
0.10866
0.108877
0.109093
0.109309
0.109525
0.109741
0.109956
0.110171
0.110385
0.1106
0.110814
0.111027
0.111241
0.111454
0.111666
0.111879
0.112091
0.112303
0.112514
0.112726
0.112937
0.113147
0.113358
0.113568
0.113777
0.113987
0.114196
0.114405
0.114613
0.114821
0.115029
0.115237
0.115444
0.115651
0.115857
0.116064
0.11627
0.116475
0.11668
0.116885
0.11709
0.117294
0.117498
0.117701
0.117904
0.118107
0.118309
0.118511
0.118713
0.118914
0.119114
0.119315
0.119515
0.119714
0.119913
0.120112
0.12031
0.120507
0.120704
0.120901
0.121097
0.121292
0.121487
0.121682
0.121876
0.122069
0.122262
0.122454
0.122645
0.122836
0.123026
0.123215
0.123403
0.123591
0.123778
0.123964
0.124149
0.124333
0.124517
0.124699
0.12488
0.125061
0.12524
0.125418
0.125595
0.125771
0.125945
0.126118
0.126289
0.126459
0.126628
0.126795
0.12696
0.127124
0.127285
0.127445
0.127602
0.127758
0.127911
0.128061
0.12821
0.128355
0.128498
0.128638
0.128775
0.128908
0.129038
0.129165
0.129287
0.129406
0.12952
0.12963
0.129735
0.129834
0.129928
0.130017
0.130099
0.130174
0.130243
0.130304
0.130357
0.130401
0.130436
0.130461
0.130475
0.130478
0.130469
0.130446
0.130409
0.130356
0.130286
0.130198
0.130089
0.129959
0.129805
0.129624
0.129414
0.129172
0.128895
0.128579
0.128218
0.127809
0.127344
0.126817
0.126219
0.125541
0.124771
0.123894
0.122892
0.121745
0.120426
0.1189
0.117124
0.115043
0.112579
0.109633
0.10606
0.101659
0.0961345
0.0890497
0.0797983
0.0678336
0.0545345
0.0495834
)
;

boundaryField
{
    top_wall
    {
        type            kLowReWallFunction;
        value           uniform 0.000181641;
    }
    inlet
    {
        type            cyclic;
    }
    bot_wall
    {
        type            kLowReWallFunction;
        value           uniform 0.000181641;
    }
    outlet
    {
        type            cyclic;
    }
    frontAndBack
    {
        type            empty;
    }
}


// ************************************************************************* //
