/*--------------------------------*- C++ -*----------------------------------*\
| =========                 |                                                 |
| \\      /  F ield         | OpenFOAM: The Open Source CFD Toolbox           |
|  \\    /   O peration     | Version:  2406                                  |
|   \\  /    A nd           | Website:  www.openfoam.com                      |
|    \\/     M anipulation  |                                                 |
\*---------------------------------------------------------------------------*/
FoamFile
{
    version     2.0;
    format      ascii;
    arch        "LSB;label=32;scalar=64";
    class       volScalarField;
    location    "22.855";
    object      nut;
}
// * * * * * * * * * * * * * * * * * * * * * * * * * * * * * * * * * * * * * //

dimensions      [0 2 -1 0 0 0 0];

internalField   nonuniform List<scalar> 
1000
(
2.34761e-05
5.38138e-05
0.000119131
0.00020435
0.000296182
0.000389244
0.00048165
0.00057276
0.000662384
0.000750506
0.000837178
0.000922472
0.00100647
0.00108924
0.00117085
0.00125138
0.00133088
0.0014094
0.00148698
0.00156368
0.00163953
0.00171456
0.00178881
0.00186229
0.00193505
0.00200711
0.00207848
0.00214918
0.00221925
0.00228868
0.0023575
0.00242573
0.00249337
0.00256044
0.00262696
0.00269292
0.00275836
0.00282326
0.00288765
0.00295153
0.00301491
0.00307781
0.00314021
0.00320214
0.0032636
0.0033246
0.00338514
0.00344522
0.00350486
0.00356406
0.00362282
0.00368115
0.00373905
0.00379653
0.0038536
0.00391024
0.00396648
0.00402231
0.00407773
0.00413276
0.00418739
0.00424162
0.00429547
0.00434892
0.004402
0.00445468
0.00450699
0.00455893
0.00461048
0.00466167
0.00471248
0.00476293
0.00481301
0.00486273
0.00491208
0.00496107
0.00500971
0.00505799
0.00510592
0.00515349
0.00520072
0.00524759
0.00529411
0.00534029
0.00538613
0.00543162
0.00547677
0.00552158
0.00556605
0.00561018
0.00565398
0.00569744
0.00574056
0.00578336
0.00582582
0.00586795
0.00590976
0.00595123
0.00599238
0.00603321
0.0060737
0.00611388
0.00615373
0.00619326
0.00623247
0.00627136
0.00630993
0.00634819
0.00638613
0.00642375
0.00646105
0.00649805
0.00653473
0.0065711
0.00660715
0.0066429
0.00667834
0.00671347
0.00674829
0.00678281
0.00681702
0.00685092
0.00688452
0.00691782
0.00695081
0.0069835
0.00701589
0.00704798
0.00707978
0.00711127
0.00714246
0.00717336
0.00720397
0.00723427
0.00726429
0.00729401
0.00732343
0.00735257
0.00738141
0.00740996
0.00743822
0.0074662
0.00749388
0.00752128
0.00754839
0.00757521
0.00760175
0.00762801
0.00765398
0.00767967
0.00770508
0.00773021
0.00775505
0.00777962
0.00780391
0.00782791
0.00785165
0.0078751
0.00789828
0.00792119
0.00794382
0.00796618
0.00798826
0.00801007
0.00803162
0.00805289
0.00807389
0.00809463
0.00811509
0.00813529
0.00815522
0.00817489
0.0081943
0.00821344
0.00823231
0.00825093
0.00826928
0.00828737
0.00830521
0.00832278
0.0083401
0.00835716
0.00837396
0.00839051
0.0084068
0.00842284
0.00843863
0.00845416
0.00846944
0.00848447
0.00849926
0.00851379
0.00852808
0.00854211
0.00855591
0.00856945
0.00858276
0.00859581
0.00860863
0.0086212
0.00863354
0.00864563
0.00865748
0.0086691
0.00868047
0.00869161
0.00870252
0.00871319
0.00872362
0.00873382
0.00874379
0.00875353
0.00876304
0.00877231
0.00878136
0.00879018
0.00879878
0.00880715
0.00881529
0.00882321
0.0088309
0.00883837
0.00884562
0.00885265
0.00885946
0.00886605
0.00887243
0.00887858
0.00888452
0.00889024
0.00889575
0.00890105
0.00890613
0.00891101
0.00891567
0.00892012
0.00892436
0.0089284
0.00893222
0.00893585
0.00893926
0.00894247
0.00894548
0.00894829
0.00895089
0.0089533
0.0089555
0.00895751
0.00895932
0.00896093
0.00896235
0.00896357
0.0089646
0.00896543
0.00896607
0.00896652
0.00896678
0.00896686
0.00896674
0.00896644
0.00896595
0.00896527
0.00896441
0.00896337
0.00896214
0.00896073
0.00895915
0.00895738
0.00895543
0.00895331
0.00895101
0.00894853
0.00894588
0.00894305
0.00894005
0.00893688
0.00893354
0.00893003
0.00892635
0.0089225
0.00891848
0.0089143
0.00890995
0.00890544
0.00890076
0.00889593
0.00889093
0.00888577
0.00888045
0.00887497
0.00886934
0.00886355
0.0088576
0.0088515
0.00884525
0.00883884
0.00883228
0.00882557
0.00881871
0.00881171
0.00880455
0.00879725
0.00878981
0.00878221
0.00877448
0.0087666
0.00875858
0.00875042
0.00874212
0.00873369
0.00872511
0.0087164
0.00870755
0.00869857
0.00868945
0.0086802
0.00867082
0.00866131
0.00865167
0.0086419
0.008632
0.00862198
0.00861183
0.00860156
0.00859116
0.00858064
0.00857
0.00855923
0.00854835
0.00853735
0.00852624
0.008515
0.00850365
0.00849219
0.00848061
0.00846893
0.00845713
0.00844522
0.0084332
0.00842107
0.00840884
0.0083965
0.00838405
0.0083715
0.00835885
0.0083461
0.00833325
0.00832029
0.00830724
0.00829409
0.00828085
0.00826751
0.00825407
0.00824055
0.00822693
0.00821322
0.00819942
0.00818553
0.00817156
0.00815749
0.00814335
0.00812912
0.00811481
0.00810041
0.00808594
0.00807138
0.00805675
0.00804204
0.00802726
0.0080124
0.00799747
0.00798247
0.0079674
0.00795225
0.00793704
0.00792177
0.00790642
0.00789102
0.00787555
0.00786002
0.00784443
0.00782878
0.00781308
0.00779732
0.00778151
0.00776564
0.00774972
0.00773376
0.00771774
0.00770168
0.00768558
0.00766943
0.00765325
0.00763702
0.00762075
0.00760445
0.00758812
0.00757175
0.00755535
0.00753893
0.00752248
0.007506
0.00748951
0.00747299
0.00745646
0.00743991
0.00742334
0.00740677
0.00739019
0.0073736
0.00735701
0.00734042
0.00732383
0.00730725
0.00729067
0.0072741
0.00725755
0.00724101
0.00722449
0.007208
0.00719153
0.00717509
0.00715868
0.00714231
0.00712598
0.00710969
0.00709344
0.00707725
0.00706112
0.00704504
0.00702902
0.00701307
0.00699719
0.00698139
0.00696566
0.00695003
0.00693447
0.00691902
0.00690366
0.0068884
0.00687325
0.00685822
0.0068433
0.0068285
0.00681384
0.0067993
0.00678491
0.00677066
0.00675656
0.00674261
0.00672883
0.00671521
0.00670176
0.00668849
0.0066754
0.0066625
0.00664979
0.00663728
0.00662498
0.00661289
0.00660101
0.00658935
0.00657792
0.00656673
0.00655577
0.00654505
0.00653458
0.00652437
0.00651441
0.00650471
0.00649528
0.00648613
0.00647725
0.00646865
0.00646033
0.00645231
0.00644457
0.00643714
0.00643
0.00642316
0.00641664
0.00641042
0.00640451
0.00639892
0.00639365
0.00638869
0.00638406
0.00637975
0.00637577
0.00637212
0.00636879
0.00636579
0.00636312
0.00636079
0.00635878
0.00635711
0.00635578
0.00635477
0.00635411
0.00635377
0.00635377
0.00635411
0.00635477
0.00635578
0.00635711
0.00635878
0.00636079
0.00636312
0.00636579
0.00636879
0.00637212
0.00637577
0.00637975
0.00638406
0.00638869
0.00639365
0.00639892
0.00640451
0.00641042
0.00641664
0.00642316
0.00643
0.00643714
0.00644457
0.00645231
0.00646033
0.00646865
0.00647725
0.00648613
0.00649528
0.00650471
0.00651441
0.00652437
0.00653458
0.00654505
0.00655577
0.00656673
0.00657792
0.00658935
0.00660101
0.00661288
0.00662498
0.00663728
0.00664979
0.00666249
0.0066754
0.00668848
0.00670176
0.0067152
0.00672882
0.00674261
0.00675656
0.00677066
0.00678491
0.0067993
0.00681384
0.0068285
0.0068433
0.00685821
0.00687325
0.0068884
0.00690366
0.00691901
0.00693447
0.00695002
0.00696566
0.00698139
0.00699719
0.00701307
0.00702902
0.00704503
0.00706111
0.00707725
0.00709344
0.00710968
0.00712597
0.00714231
0.00715868
0.00717509
0.00719153
0.007208
0.00722449
0.00724101
0.00725755
0.0072741
0.00729067
0.00730724
0.00732383
0.00734042
0.00735701
0.0073736
0.00739019
0.00740677
0.00742334
0.0074399
0.00745645
0.00747299
0.0074895
0.007506
0.00752248
0.00753893
0.00755535
0.00757175
0.00758811
0.00760445
0.00762075
0.00763702
0.00765324
0.00766943
0.00768558
0.00770168
0.00771774
0.00773376
0.00774972
0.00776564
0.0077815
0.00779732
0.00781308
0.00782878
0.00784443
0.00786002
0.00787555
0.00789102
0.00790642
0.00792176
0.00793704
0.00795225
0.00796739
0.00798247
0.00799747
0.0080124
0.00802726
0.00804204
0.00805675
0.00807138
0.00808593
0.00810041
0.0081148
0.00812912
0.00814335
0.00815749
0.00817155
0.00818553
0.00819941
0.00821321
0.00822692
0.00824054
0.00825407
0.0082675
0.00828084
0.00829409
0.00830724
0.00832029
0.00833324
0.0083461
0.00835885
0.0083715
0.00838405
0.00839649
0.00840883
0.00842107
0.00843319
0.00844521
0.00845712
0.00846892
0.00848061
0.00849219
0.00850365
0.008515
0.00852623
0.00853735
0.00854835
0.00855923
0.00856999
0.00858063
0.00859115
0.00860155
0.00861182
0.00862197
0.008632
0.00864189
0.00865166
0.0086613
0.00867082
0.0086802
0.00868944
0.00869856
0.00870754
0.00871639
0.0087251
0.00873368
0.00874212
0.00875042
0.00875858
0.0087666
0.00877447
0.00878221
0.0087898
0.00879725
0.00880455
0.0088117
0.00881871
0.00882557
0.00883228
0.00883883
0.00884524
0.00885149
0.0088576
0.00886354
0.00886933
0.00887497
0.00888044
0.00888576
0.00889092
0.00889592
0.00890076
0.00890543
0.00890994
0.00891429
0.00891847
0.00892249
0.00892634
0.00893002
0.00893353
0.00893687
0.00894005
0.00894304
0.00894587
0.00894852
0.008951
0.0089533
0.00895542
0.00895737
0.00895914
0.00896073
0.00896214
0.00896336
0.0089644
0.00896526
0.00896594
0.00896643
0.00896673
0.00896685
0.00896678
0.00896652
0.00896607
0.00896542
0.00896459
0.00896356
0.00896234
0.00896093
0.00895931
0.0089575
0.0089555
0.00895329
0.00895089
0.00894828
0.00894548
0.00894247
0.00893926
0.00893584
0.00893222
0.00892839
0.00892436
0.00892011
0.00891566
0.008911
0.00890613
0.00890105
0.00889575
0.00889024
0.00888452
0.00887858
0.00887242
0.00886605
0.00885946
0.00885265
0.00884562
0.00883837
0.0088309
0.0088232
0.00881528
0.00880714
0.00879877
0.00879018
0.00878136
0.00877231
0.00876303
0.00875353
0.00874379
0.00873382
0.00872362
0.00871318
0.00870251
0.00869161
0.00868047
0.00866909
0.00865748
0.00864562
0.00863353
0.0086212
0.00860863
0.00859581
0.00858275
0.00856945
0.0085559
0.00854211
0.00852807
0.00851379
0.00849925
0.00848447
0.00846944
0.00845416
0.00843862
0.00842284
0.0084068
0.00839051
0.00837396
0.00835716
0.0083401
0.00832278
0.0083052
0.00828737
0.00826928
0.00825093
0.00823231
0.00821343
0.00819429
0.00817489
0.00815522
0.00813529
0.00811509
0.00809462
0.00807389
0.00805289
0.00803161
0.00801007
0.00798826
0.00796617
0.00794382
0.00792119
0.00789828
0.0078751
0.00785164
0.00782791
0.0078039
0.00777962
0.00775505
0.0077302
0.00770508
0.00767967
0.00765398
0.00762801
0.00760175
0.00757521
0.00754839
0.00752128
0.00749388
0.00746619
0.00743822
0.00740996
0.00738141
0.00735256
0.00732343
0.007294
0.00726428
0.00723427
0.00720396
0.00717336
0.00714246
0.00711127
0.00707977
0.00704798
0.00701589
0.0069835
0.00695081
0.00691781
0.00688452
0.00685092
0.00681701
0.00678281
0.00674829
0.00671347
0.00667834
0.0066429
0.00660715
0.0065711
0.00653473
0.00649805
0.00646105
0.00642375
0.00638612
0.00634819
0.00630993
0.00627136
0.00623247
0.00619326
0.00615373
0.00611388
0.0060737
0.0060332
0.00599238
0.00595123
0.00590976
0.00586795
0.00582582
0.00578336
0.00574056
0.00569744
0.00565398
0.00561018
0.00556605
0.00552158
0.00547677
0.00543162
0.00538613
0.00534029
0.00529411
0.00524759
0.00520072
0.00515349
0.00510592
0.00505799
0.00500971
0.00496107
0.00491208
0.00486273
0.00481301
0.00476293
0.00471248
0.00466167
0.00461048
0.00455893
0.00450699
0.00445468
0.004402
0.00434892
0.00429547
0.00424162
0.00418739
0.00413276
0.00407773
0.00402231
0.00396648
0.00391024
0.0038536
0.00379653
0.00373905
0.00368115
0.00362282
0.00356406
0.00350486
0.00344522
0.00338514
0.0033246
0.0032636
0.00320214
0.00314021
0.00307781
0.00301491
0.00295153
0.00288765
0.00282326
0.00275836
0.00269292
0.00262696
0.00256044
0.00249337
0.00242573
0.0023575
0.00228868
0.00221925
0.00214918
0.00207848
0.00200711
0.00193505
0.00186229
0.00178881
0.00171456
0.00163953
0.00156368
0.00148698
0.0014094
0.00133088
0.00125138
0.00117085
0.00108924
0.00100647
0.000922472
0.000837178
0.000750506
0.000662384
0.000572759
0.00048165
0.000389244
0.000296182
0.00020435
0.000119131
5.38138e-05
2.34761e-05
)
;

boundaryField
{
    top_wall
    {
        type            nutLowReWallFunction;
        value           uniform 0;
    }
    inlet
    {
        type            cyclic;
    }
    bot_wall
    {
        type            nutLowReWallFunction;
        value           uniform 0;
    }
    outlet
    {
        type            cyclic;
    }
    frontAndBack
    {
        type            empty;
    }
}


// ************************************************************************* //
