/*--------------------------------*- C++ -*----------------------------------*\
| =========                 |                                                 |
| \\      /  F ield         | OpenFOAM: The Open Source CFD Toolbox           |
|  \\    /   O peration     | Version:  2406                                  |
|   \\  /    A nd           | Website:  www.openfoam.com                      |
|    \\/     M anipulation  |                                                 |
\*---------------------------------------------------------------------------*/
FoamFile
{
    version     2.0;
    format      ascii;
    arch        "LSB;label=32;scalar=64";
    class       surfaceScalarField;
    location    "22.855";
    object      phi;
}
// * * * * * * * * * * * * * * * * * * * * * * * * * * * * * * * * * * * * * //

dimensions      [0 3 -1 0 0 0 0];

oriented        oriented;

internalField   nonuniform List<scalar> 
999
(
-5.38417e-19
-5.35313e-19
-5.3623e-19
-5.35416e-19
-5.31771e-19
-5.36489e-19
-5.39207e-19
-5.38681e-19
-5.29066e-19
-5.23374e-19
-5.36671e-19
-5.4305e-19
-5.63424e-19
-5.56971e-19
-5.64308e-19
-5.58563e-19
-5.56224e-19
-5.5345e-19
-5.53711e-19
-5.53471e-19
-5.53854e-19
-5.54662e-19
-5.55796e-19
-5.57179e-19
-5.58743e-19
-5.60435e-19
-5.62212e-19
-5.64039e-19
-5.65892e-19
-5.6775e-19
-5.69597e-19
-5.71422e-19
-5.73219e-19
-5.74981e-19
-5.76706e-19
-5.78391e-19
-5.80037e-19
-5.81642e-19
-5.83209e-19
-5.84737e-19
-5.86229e-19
-5.87686e-19
-5.89109e-19
-5.905e-19
-5.91861e-19
-5.93193e-19
-5.94497e-19
-5.95776e-19
-5.9703e-19
-5.98261e-19
-5.9947e-19
-6.00657e-19
-6.01825e-19
-6.02973e-19
-6.04104e-19
-6.05217e-19
-6.06314e-19
-6.07395e-19
-6.08462e-19
-6.09515e-19
-6.10555e-19
-6.11582e-19
-6.12599e-19
-6.13604e-19
-6.146e-19
-6.15586e-19
-6.16565e-19
-6.17535e-19
-6.18499e-19
-6.19458e-19
-6.20411e-19
-6.2136e-19
-6.22306e-19
-6.23249e-19
-6.24191e-19
-6.25132e-19
-6.26073e-19
-6.27016e-19
-6.27961e-19
-6.28909e-19
-6.29861e-19
-6.30819e-19
-6.31783e-19
-6.32754e-19
-6.33734e-19
-6.34724e-19
-6.35725e-19
-6.36737e-19
-6.37764e-19
-6.38804e-19
-6.39861e-19
-6.40935e-19
-6.42027e-19
-6.4314e-19
-6.44273e-19
-6.45429e-19
-6.46608e-19
-6.47811e-19
-6.49038e-19
-6.5029e-19
-6.51567e-19
-6.52867e-19
-6.54189e-19
-6.5553e-19
-6.56888e-19
-6.58255e-19
-6.59627e-19
-6.60995e-19
-6.62347e-19
-6.63669e-19
-6.64947e-19
-6.66159e-19
-6.67282e-19
-6.68286e-19
-6.69169e-19
-6.69925e-19
-6.70517e-19
-6.70906e-19
-6.71046e-19
-6.70917e-19
-6.70497e-19
-6.69736e-19
-6.68581e-19
-6.67014e-19
-6.65015e-19
-6.62545e-19
-6.59603e-19
-6.56203e-19
-6.52355e-19
-6.48087e-19
-6.43425e-19
-6.38387e-19
-6.3303e-19
-6.27798e-19
-6.22378e-19
-6.18637e-19
-6.20557e-19
-6.20768e-19
-6.22167e-19
-6.16226e-19
-6.34456e-19
-6.28518e-19
-6.29934e-19
-6.30728e-19
-6.3177e-19
-6.32614e-19
-6.33361e-19
-6.34125e-19
-6.35005e-19
-6.36086e-19
-6.37417e-19
-6.39021e-19
-6.40897e-19
-6.43053e-19
-6.45481e-19
-6.48146e-19
-6.51032e-19
-6.54121e-19
-6.57373e-19
-6.60749e-19
-6.64243e-19
-6.67852e-19
-6.71559e-19
-6.75355e-19
-6.79274e-19
-6.83374e-19
-6.87719e-19
-6.92414e-19
-6.98844e-19
-7.05699e-19
-7.06031e-19
-6.7925e-19
-6.79296e-19
-6.85523e-19
-6.91059e-19
-6.94609e-19
-6.9757e-19
-7.00064e-19
-7.02177e-19
-7.03968e-19
-7.05481e-19
-7.06744e-19
-7.07778e-19
-7.08595e-19
-7.09204e-19
-7.09606e-19
-7.09801e-19
-7.09784e-19
-7.09544e-19
-7.09063e-19
-7.08318e-19
-7.07272e-19
-7.05906e-19
-7.04189e-19
-7.02083e-19
-6.99575e-19
-6.96692e-19
-6.93516e-19
-6.90204e-19
-6.87075e-19
-6.85835e-19
-6.83787e-19
-6.83927e-19
-7.10423e-19
-7.10379e-19
-7.07946e-19
-7.06144e-19
-7.02287e-19
-6.98071e-19
-6.9383e-19
-6.89734e-19
-6.8584e-19
-6.82148e-19
-6.78643e-19
-6.75287e-19
-6.72046e-19
-6.68891e-19
-6.65785e-19
-6.62719e-19
-6.59677e-19
-6.5663e-19
-6.53576e-19
-6.50517e-19
-6.4746e-19
-6.44414e-19
-6.41391e-19
-6.38403e-19
-6.35464e-19
-6.32585e-19
-6.29777e-19
-6.27031e-19
-6.24338e-19
-6.21707e-19
-6.19147e-19
-6.16663e-19
-6.14258e-19
-6.11934e-19
-6.09691e-19
-6.07526e-19
-6.05438e-19
-6.03421e-19
-6.01471e-19
-5.99582e-19
-5.97767e-19
-5.96044e-19
-5.94408e-19
-5.92835e-19
-5.91299e-19
-5.89818e-19
-5.88408e-19
-5.87061e-19
-5.85771e-19
-5.84531e-19
-5.83336e-19
-5.82181e-19
-5.81059e-19
-5.79967e-19
-5.78899e-19
-5.77852e-19
-5.76821e-19
-5.75804e-19
-5.74797e-19
-5.73797e-19
-5.72801e-19
-5.71807e-19
-5.70813e-19
-5.69817e-19
-5.68817e-19
-5.67812e-19
-5.66801e-19
-5.65782e-19
-5.64754e-19
-5.63717e-19
-5.6267e-19
-5.61611e-19
-5.60542e-19
-5.59461e-19
-5.58368e-19
-5.57262e-19
-5.56145e-19
-5.55014e-19
-5.53871e-19
-5.52716e-19
-5.51548e-19
-5.50368e-19
-5.49175e-19
-5.4797e-19
-5.46753e-19
-5.45525e-19
-5.44284e-19
-5.43032e-19
-5.41769e-19
-5.40495e-19
-5.39211e-19
-5.37915e-19
-5.3661e-19
-5.35294e-19
-5.33969e-19
-5.32635e-19
-5.31291e-19
-5.29939e-19
-5.28577e-19
-5.27208e-19
-5.2583e-19
-5.24444e-19
-5.23051e-19
-5.2165e-19
-5.20243e-19
-5.18828e-19
-5.17406e-19
-5.15978e-19
-5.14544e-19
-5.13104e-19
-5.11658e-19
-5.10206e-19
-5.08749e-19
-5.07287e-19
-5.05819e-19
-5.04347e-19
-5.0287e-19
-5.01388e-19
-4.99902e-19
-4.98412e-19
-4.96918e-19
-4.95419e-19
-4.93917e-19
-4.92411e-19
-4.90902e-19
-4.89389e-19
-4.87873e-19
-4.86353e-19
-4.84831e-19
-4.83305e-19
-4.81777e-19
-4.80246e-19
-4.78712e-19
-4.77175e-19
-4.75636e-19
-4.74095e-19
-4.72551e-19
-4.71005e-19
-4.69457e-19
-4.67907e-19
-4.66354e-19
-4.648e-19
-4.63244e-19
-4.61685e-19
-4.60125e-19
-4.58564e-19
-4.57e-19
-4.55435e-19
-4.53869e-19
-4.52301e-19
-4.50731e-19
-4.4916e-19
-4.47587e-19
-4.46014e-19
-4.44439e-19
-4.42862e-19
-4.41285e-19
-4.39706e-19
-4.38126e-19
-4.36545e-19
-4.34963e-19
-4.3338e-19
-4.31796e-19
-4.30211e-19
-4.28624e-19
-4.27038e-19
-4.2545e-19
-4.23861e-19
-4.22272e-19
-4.20681e-19
-4.1909e-19
-4.17499e-19
-4.15906e-19
-4.14313e-19
-4.12719e-19
-4.11125e-19
-4.0953e-19
-4.07934e-19
-4.06338e-19
-4.04742e-19
-4.03144e-19
-4.01547e-19
-3.99949e-19
-3.9835e-19
-3.96751e-19
-3.95152e-19
-3.93552e-19
-3.91952e-19
-3.90352e-19
-3.88751e-19
-3.8715e-19
-3.85549e-19
-3.83947e-19
-3.82345e-19
-3.80743e-19
-3.79141e-19
-3.77539e-19
-3.75936e-19
-3.74334e-19
-3.72731e-19
-3.71128e-19
-3.69525e-19
-3.67922e-19
-3.66319e-19
-3.64716e-19
-3.63113e-19
-3.6151e-19
-3.59907e-19
-3.58304e-19
-3.56701e-19
-3.55098e-19
-3.53495e-19
-3.51893e-19
-3.5029e-19
-3.48688e-19
-3.47086e-19
-3.45484e-19
-3.43882e-19
-3.4228e-19
-3.40679e-19
-3.39078e-19
-3.37477e-19
-3.35877e-19
-3.34277e-19
-3.32677e-19
-3.31078e-19
-3.29479e-19
-3.2788e-19
-3.26282e-19
-3.24685e-19
-3.23088e-19
-3.21491e-19
-3.19895e-19
-3.183e-19
-3.16706e-19
-3.15112e-19
-3.13518e-19
-3.11926e-19
-3.10334e-19
-3.08743e-19
-3.07152e-19
-3.05563e-19
-3.03975e-19
-3.02387e-19
-3.00801e-19
-2.99215e-19
-2.97631e-19
-2.96047e-19
-2.94465e-19
-2.92884e-19
-2.91304e-19
-2.89726e-19
-2.88149e-19
-2.86573e-19
-2.84999e-19
-2.83426e-19
-2.81855e-19
-2.80286e-19
-2.78718e-19
-2.77152e-19
-2.75588e-19
-2.74025e-19
-2.72465e-19
-2.70906e-19
-2.6935e-19
-2.67796e-19
-2.66244e-19
-2.64694e-19
-2.63146e-19
-2.61601e-19
-2.60059e-19
-2.58519e-19
-2.56982e-19
-2.55447e-19
-2.53915e-19
-2.52386e-19
-2.5086e-19
-2.49337e-19
-2.47817e-19
-2.46301e-19
-2.44787e-19
-2.43277e-19
-2.4177e-19
-2.40267e-19
-2.38768e-19
-2.37272e-19
-2.35779e-19
-2.34291e-19
-2.32805e-19
-2.31322e-19
-2.29842e-19
-2.28366e-19
-2.26892e-19
-2.25421e-19
-2.23953e-19
-2.22489e-19
-2.21028e-19
-2.19571e-19
-2.18118e-19
-2.16668e-19
-2.15222e-19
-2.1378e-19
-2.12342e-19
-2.10908e-19
-2.09478e-19
-2.08051e-19
-2.06628e-19
-2.05211e-19
-2.03799e-19
-2.02393e-19
-2.00993e-19
-1.99598e-19
-1.98209e-19
-1.96826e-19
-1.95448e-19
-1.94077e-19
-1.92711e-19
-1.91352e-19
-1.89999e-19
-1.88652e-19
-1.87311e-19
-1.85976e-19
-1.84648e-19
-1.83326e-19
-1.82011e-19
-1.80702e-19
-1.79399e-19
-1.78103e-19
-1.76814e-19
-1.75531e-19
-1.74255e-19
-1.72986e-19
-1.71723e-19
-1.70467e-19
-1.69218e-19
-1.67976e-19
-1.6674e-19
-1.65512e-19
-1.6429e-19
-1.63075e-19
-1.61867e-19
-1.60666e-19
-1.59472e-19
-1.58285e-19
-1.57105e-19
-1.55931e-19
-1.54765e-19
-1.53606e-19
-1.52454e-19
-1.51308e-19
-1.5017e-19
-1.49039e-19
-1.47915e-19
-1.46797e-19
-1.45687e-19
-1.44584e-19
-1.43487e-19
-1.42398e-19
-1.41315e-19
-1.4024e-19
-1.39171e-19
-1.38109e-19
-1.37054e-19
-1.36006e-19
-1.34965e-19
-1.33931e-19
-1.32903e-19
-1.31883e-19
-1.30869e-19
-1.29862e-19
-1.28861e-19
-1.27868e-19
-1.26881e-19
-1.25901e-19
-1.24927e-19
-1.2396e-19
-1.23e-19
-1.22046e-19
-1.21099e-19
-1.20158e-19
-1.19224e-19
-1.18297e-19
-1.17375e-19
-1.16461e-19
-1.15552e-19
-1.1465e-19
-1.13755e-19
-1.12865e-19
-1.11982e-19
-1.11105e-19
-1.10235e-19
-1.0937e-19
-1.08512e-19
-1.0766e-19
-1.06814e-19
-1.05974e-19
-1.0514e-19
-1.04312e-19
-1.0349e-19
-1.02674e-19
-1.01864e-19
-1.0106e-19
-1.00262e-19
-9.94694e-20
-9.86827e-20
-9.79018e-20
-9.71265e-20
-9.6357e-20
-9.55931e-20
-9.48349e-20
-9.40823e-20
-9.33352e-20
-9.25936e-20
-9.18576e-20
-9.1127e-20
-9.04019e-20
-8.96822e-20
-8.89678e-20
-8.82588e-20
-8.75551e-20
-8.68567e-20
-8.61635e-20
-8.54756e-20
-8.47928e-20
-8.41152e-20
-8.34427e-20
-8.27753e-20
-8.21129e-20
-8.14556e-20
-8.08033e-20
-8.01559e-20
-7.95135e-20
-7.8876e-20
-7.82434e-20
-7.76156e-20
-7.69926e-20
-7.63744e-20
-7.57609e-20
-7.51522e-20
-7.45481e-20
-7.39487e-20
-7.3354e-20
-7.27638e-20
-7.21782e-20
-7.15972e-20
-7.10206e-20
-7.04486e-20
-6.9881e-20
-6.93178e-20
-6.8759e-20
-6.82046e-20
-6.76545e-20
-6.71087e-20
-6.65672e-20
-6.603e-20
-6.54969e-20
-6.49681e-20
-6.44434e-20
-6.39229e-20
-6.34064e-20
-6.28941e-20
-6.23858e-20
-6.18815e-20
-6.13812e-20
-6.08849e-20
-6.03925e-20
-5.9904e-20
-5.94195e-20
-5.89388e-20
-5.84619e-20
-5.79888e-20
-5.75195e-20
-5.7054e-20
-5.65922e-20
-5.61341e-20
-5.56797e-20
-5.52289e-20
-5.47817e-20
-5.43382e-20
-5.38982e-20
-5.34618e-20
-5.30288e-20
-5.25994e-20
-5.21735e-20
-5.1751e-20
-5.13319e-20
-5.09163e-20
-5.0504e-20
-5.0095e-20
-4.96894e-20
-4.92871e-20
-4.8888e-20
-4.84922e-20
-4.80997e-20
-4.77103e-20
-4.73241e-20
-4.69411e-20
-4.65613e-20
-4.61845e-20
-4.58108e-20
-4.54402e-20
-4.50727e-20
-4.47081e-20
-4.43466e-20
-4.3988e-20
-4.36324e-20
-4.32798e-20
-4.293e-20
-4.25832e-20
-4.22392e-20
-4.1898e-20
-4.15597e-20
-4.12242e-20
-4.08914e-20
-4.05615e-20
-4.02342e-20
-3.99097e-20
-3.95879e-20
-3.92688e-20
-3.89523e-20
-3.86385e-20
-3.83273e-20
-3.80187e-20
-3.77127e-20
-3.74092e-20
-3.71083e-20
-3.68099e-20
-3.6514e-20
-3.62205e-20
-3.59296e-20
-3.56411e-20
-3.5355e-20
-3.50713e-20
-3.479e-20
-3.45111e-20
-3.42345e-20
-3.39602e-20
-3.36883e-20
-3.34187e-20
-3.31513e-20
-3.28862e-20
-3.26234e-20
-3.23628e-20
-3.21044e-20
-3.18481e-20
-3.15941e-20
-3.13422e-20
-3.10925e-20
-3.08448e-20
-3.05993e-20
-3.03559e-20
-3.01145e-20
-2.98752e-20
-2.96379e-20
-2.94027e-20
-2.91695e-20
-2.89382e-20
-2.8709e-20
-2.84817e-20
-2.82563e-20
-2.80329e-20
-2.78113e-20
-2.75917e-20
-2.7374e-20
-2.71581e-20
-2.69441e-20
-2.67319e-20
-2.65216e-20
-2.6313e-20
-2.61063e-20
-2.59013e-20
-2.56981e-20
-2.54966e-20
-2.52969e-20
-2.50989e-20
-2.49026e-20
-2.4708e-20
-2.45151e-20
-2.43238e-20
-2.41342e-20
-2.39463e-20
-2.37599e-20
-2.35752e-20
-2.33921e-20
-2.32105e-20
-2.30306e-20
-2.28521e-20
-2.26753e-20
-2.25e-20
-2.23262e-20
-2.21539e-20
-2.1983e-20
-2.18137e-20
-2.16459e-20
-2.14795e-20
-2.13145e-20
-2.1151e-20
-2.0989e-20
-2.08283e-20
-2.0669e-20
-2.05111e-20
-2.03546e-20
-2.01994e-20
-2.00456e-20
-1.98932e-20
-1.9742e-20
-1.95922e-20
-1.94437e-20
-1.92965e-20
-1.91506e-20
-1.90059e-20
-1.88625e-20
-1.87204e-20
-1.85795e-20
-1.84398e-20
-1.83013e-20
-1.81641e-20
-1.8028e-20
-1.78932e-20
-1.77595e-20
-1.7627e-20
-1.74956e-20
-1.73654e-20
-1.72363e-20
-1.71084e-20
-1.69815e-20
-1.68558e-20
-1.67311e-20
-1.66076e-20
-1.64851e-20
-1.63637e-20
-1.62434e-20
-1.61241e-20
-1.60058e-20
-1.58886e-20
-1.57723e-20
-1.56571e-20
-1.55429e-20
-1.54297e-20
-1.53175e-20
-1.52062e-20
-1.50959e-20
-1.49866e-20
-1.48782e-20
-1.47707e-20
-1.46642e-20
-1.45586e-20
-1.44539e-20
-1.43501e-20
-1.42472e-20
-1.41451e-20
-1.4044e-20
-1.39437e-20
-1.38443e-20
-1.37457e-20
-1.3648e-20
-1.35511e-20
-1.3455e-20
-1.33598e-20
-1.32653e-20
-1.31716e-20
-1.30788e-20
-1.29867e-20
-1.28954e-20
-1.28049e-20
-1.27151e-20
-1.2626e-20
-1.25377e-20
-1.24502e-20
-1.23634e-20
-1.22772e-20
-1.21918e-20
-1.21071e-20
-1.20231e-20
-1.19398e-20
-1.18571e-20
-1.17751e-20
-1.16938e-20
-1.16131e-20
-1.15331e-20
-1.14537e-20
-1.13749e-20
-1.12968e-20
-1.12192e-20
-1.11423e-20
-1.1066e-20
-1.09902e-20
-1.0915e-20
-1.08404e-20
-1.07664e-20
-1.06929e-20
-1.062e-20
-1.05475e-20
-1.04757e-20
-1.04043e-20
-1.03335e-20
-1.02631e-20
-1.01933e-20
-1.01239e-20
-1.0055e-20
-9.98661e-21
-9.91865e-21
-9.85114e-21
-9.78407e-21
-9.71744e-21
-9.65123e-21
-9.58543e-21
-9.52003e-21
-9.45503e-21
-9.39042e-21
-9.32617e-21
-9.2623e-21
-9.19877e-21
-9.1356e-21
-9.07275e-21
-9.01023e-21
-8.94802e-21
-8.88611e-21
-8.82449e-21
-8.76315e-21
-8.70208e-21
-8.64126e-21
-8.58068e-21
-8.52033e-21
-8.4602e-21
-8.40027e-21
-8.34053e-21
-8.28097e-21
-8.22157e-21
-8.16232e-21
-8.1032e-21
-8.0442e-21
-7.98529e-21
-7.92648e-21
-7.86772e-21
-7.80902e-21
-7.75035e-21
-7.69168e-21
-7.63301e-21
-7.57431e-21
-7.51556e-21
-7.45674e-21
-7.39782e-21
-7.33878e-21
-7.2796e-21
-7.22024e-21
-7.16068e-21
-7.10089e-21
-7.04085e-21
-6.9805e-21
-6.91984e-21
-6.85881e-21
-6.79737e-21
-6.7355e-21
-6.67314e-21
-6.61025e-21
-6.54678e-21
-6.48268e-21
-6.4179e-21
-6.35236e-21
-6.28602e-21
-6.2188e-21
-6.15063e-21
-6.08142e-21
-6.01109e-21
-5.93954e-21
-5.86668e-21
-5.79238e-21
-5.71653e-21
-5.63898e-21
-5.55959e-21
-5.47819e-21
-5.39458e-21
-5.30856e-21
-5.21989e-21
-5.1283e-21
-5.03349e-21
-4.9351e-21
-4.83273e-21
-4.72591e-21
-4.61407e-21
-4.49657e-21
-4.3726e-21
-4.24121e-21
-4.1012e-21
-3.95111e-21
-3.78902e-21
-3.61246e-21
-3.41813e-21
-3.20144e-21
-2.95585e-21
-2.67165e-21
-2.3339e-21
-1.91979e-21
-1.40041e-21
-7.62802e-22
)
;

boundaryField
{
    top_wall
    {
        type            calculated;
        value           uniform 0;
    }
    inlet
    {
        type            cyclic;
        value           nonuniform List<scalar> 
1000
(
-1.14949e-05
-3.07243e-05
-4.67118e-05
-5.93481e-05
-6.94801e-05
-7.78697e-05
-8.50211e-05
-9.12578e-05
-9.67944e-05
-0.000101778
-0.000106315
-0.000110483
-0.00011434
-0.000117932
-0.000121296
-0.000124461
-0.00012745
-0.000130283
-0.000132977
-0.000135545
-0.000138
-0.000140352
-0.000142609
-0.00014478
-0.000146872
-0.00014889
-0.000150839
-0.000152725
-0.000154552
-0.000156324
-0.000158044
-0.000159716
-0.000161341
-0.000162924
-0.000164466
-0.000165969
-0.000167436
-0.000168868
-0.000170267
-0.000171635
-0.000172973
-0.000174283
-0.000175566
-0.000176822
-0.000178054
-0.000179262
-0.000180447
-0.00018161
-0.000182752
-0.000183874
-0.000184977
-0.000186061
-0.000187127
-0.000188175
-0.000189207
-0.000190222
-0.000191222
-0.000192206
-0.000193176
-0.000194132
-0.000195075
-0.000196003
-0.000196919
-0.000197823
-0.000198714
-0.000199594
-0.000200462
-0.00020132
-0.000202166
-0.000203002
-0.000203828
-0.000204644
-0.00020545
-0.000206247
-0.000207035
-0.000207814
-0.000208584
-0.000209346
-0.000210099
-0.000210844
-0.000211582
-0.000212312
-0.000213034
-0.000213749
-0.000214457
-0.000215158
-0.000215853
-0.00021654
-0.000217221
-0.000217896
-0.000218564
-0.000219226
-0.000219883
-0.000220533
-0.000221178
-0.000221817
-0.000222451
-0.000223079
-0.000223702
-0.00022432
-0.000224932
-0.00022554
-0.000226143
-0.000226741
-0.000227334
-0.000227923
-0.000228508
-0.000229087
-0.000229663
-0.000230234
-0.000230801
-0.000231364
-0.000231923
-0.000232478
-0.000233029
-0.000233576
-0.00023412
-0.000234659
-0.000235195
-0.000235728
-0.000236257
-0.000236782
-0.000237304
-0.000237823
-0.000238339
-0.000238851
-0.00023936
-0.000239866
-0.000240368
-0.000240868
-0.000241365
-0.000241858
-0.000242349
-0.000242837
-0.000243322
-0.000243805
-0.000244284
-0.000244761
-0.000245236
-0.000245707
-0.000246176
-0.000246643
-0.000247107
-0.000247568
-0.000248028
-0.000248484
-0.000248939
-0.000249391
-0.00024984
-0.000250288
-0.000250733
-0.000251176
-0.000251616
-0.000252055
-0.000252491
-0.000252926
-0.000253358
-0.000253788
-0.000254216
-0.000254643
-0.000255067
-0.000255489
-0.000255909
-0.000256328
-0.000256744
-0.000257159
-0.000257572
-0.000257983
-0.000258392
-0.0002588
-0.000259206
-0.00025961
-0.000260012
-0.000260412
-0.000260811
-0.000261209
-0.000261604
-0.000261998
-0.000262391
-0.000262782
-0.000263171
-0.000263559
-0.000263945
-0.00026433
-0.000264713
-0.000265095
-0.000265475
-0.000265854
-0.000266231
-0.000266607
-0.000266981
-0.000267354
-0.000267726
-0.000268096
-0.000268465
-0.000268833
-0.000269199
-0.000269564
-0.000269928
-0.000270291
-0.000270652
-0.000271011
-0.00027137
-0.000271727
-0.000272083
-0.000272438
-0.000272792
-0.000273144
-0.000273496
-0.000273846
-0.000274194
-0.000274542
-0.000274889
-0.000275234
-0.000275578
-0.000275921
-0.000276263
-0.000276604
-0.000276944
-0.000277283
-0.00027762
-0.000277957
-0.000278292
-0.000278626
-0.00027896
-0.000279292
-0.000279623
-0.000279953
-0.000280282
-0.00028061
-0.000280937
-0.000281263
-0.000281588
-0.000281912
-0.000282235
-0.000282557
-0.000282879
-0.000283199
-0.000283518
-0.000283836
-0.000284153
-0.000284469
-0.000284784
-0.000285099
-0.000285412
-0.000285724
-0.000286036
-0.000286346
-0.000286656
-0.000286965
-0.000287272
-0.000287579
-0.000287885
-0.00028819
-0.000288494
-0.000288798
-0.0002891
-0.000289401
-0.000289702
-0.000290002
-0.0002903
-0.000290598
-0.000290895
-0.000291191
-0.000291487
-0.000291781
-0.000292075
-0.000292367
-0.000292659
-0.00029295
-0.00029324
-0.000293529
-0.000293818
-0.000294105
-0.000294392
-0.000294677
-0.000294962
-0.000295246
-0.00029553
-0.000295812
-0.000296094
-0.000296374
-0.000296654
-0.000296933
-0.000297211
-0.000297489
-0.000297765
-0.000298041
-0.000298316
-0.00029859
-0.000298863
-0.000299135
-0.000299407
-0.000299677
-0.000299947
-0.000300216
-0.000300484
-0.000300751
-0.000301018
-0.000301283
-0.000301548
-0.000301812
-0.000302075
-0.000302337
-0.000302599
-0.000302859
-0.000303119
-0.000303378
-0.000303636
-0.000303893
-0.000304149
-0.000304405
-0.000304659
-0.000304913
-0.000305166
-0.000305418
-0.000305669
-0.00030592
-0.000306169
-0.000306418
-0.000306666
-0.000306913
-0.000307159
-0.000307404
-0.000307648
-0.000307892
-0.000308134
-0.000308376
-0.000308617
-0.000308857
-0.000309096
-0.000309334
-0.000309571
-0.000309807
-0.000310043
-0.000310278
-0.000310511
-0.000310744
-0.000310976
-0.000311207
-0.000311437
-0.000311666
-0.000311894
-0.000312122
-0.000312348
-0.000312573
-0.000312798
-0.000313021
-0.000313244
-0.000313466
-0.000313687
-0.000313906
-0.000314125
-0.000314343
-0.00031456
-0.000314776
-0.000314991
-0.000315205
-0.000315418
-0.00031563
-0.000315841
-0.000316051
-0.00031626
-0.000316468
-0.000316675
-0.000316881
-0.000317086
-0.00031729
-0.000317493
-0.000317695
-0.000317896
-0.000318096
-0.000318294
-0.000318492
-0.000318689
-0.000318884
-0.000319079
-0.000319272
-0.000319465
-0.000319656
-0.000319846
-0.000320035
-0.000320223
-0.00032041
-0.000320596
-0.000320781
-0.000320964
-0.000321147
-0.000321328
-0.000321508
-0.000321687
-0.000321865
-0.000322041
-0.000322217
-0.000322391
-0.000322564
-0.000322736
-0.000322906
-0.000323076
-0.000323244
-0.000323411
-0.000323577
-0.000323741
-0.000323905
-0.000324067
-0.000324227
-0.000324387
-0.000324545
-0.000324702
-0.000324858
-0.000325012
-0.000325165
-0.000325317
-0.000325467
-0.000325616
-0.000325764
-0.00032591
-0.000326055
-0.000326199
-0.000326341
-0.000326482
-0.000326621
-0.000326759
-0.000326896
-0.000327031
-0.000327165
-0.000327297
-0.000327428
-0.000327557
-0.000327685
-0.000327812
-0.000327937
-0.00032806
-0.000328182
-0.000328302
-0.000328421
-0.000328539
-0.000328655
-0.000328769
-0.000328882
-0.000328993
-0.000329102
-0.00032921
-0.000329316
-0.000329421
-0.000329524
-0.000329626
-0.000329725
-0.000329824
-0.00032992
-0.000330015
-0.000330108
-0.000330199
-0.000330289
-0.000330377
-0.000330463
-0.000330548
-0.00033063
-0.000330711
-0.000330791
-0.000330868
-0.000330944
-0.000331017
-0.000331089
-0.00033116
-0.000331228
-0.000331294
-0.000331359
-0.000331422
-0.000331483
-0.000331542
-0.000331599
-0.000331654
-0.000331708
-0.000331759
-0.000331809
-0.000331857
-0.000331902
-0.000331946
-0.000331988
-0.000332028
-0.000332066
-0.000332102
-0.000332136
-0.000332168
-0.000332198
-0.000332226
-0.000332252
-0.000332276
-0.000332298
-0.000332319
-0.000332337
-0.000332353
-0.000332367
-0.000332379
-0.000332389
-0.000332397
-0.000332403
-0.000332407
-0.000332409
-0.000332409
-0.000332407
-0.000332403
-0.000332397
-0.000332389
-0.000332379
-0.000332367
-0.000332353
-0.000332337
-0.000332319
-0.000332298
-0.000332276
-0.000332252
-0.000332226
-0.000332198
-0.000332168
-0.000332136
-0.000332102
-0.000332066
-0.000332028
-0.000331988
-0.000331946
-0.000331902
-0.000331857
-0.000331809
-0.000331759
-0.000331708
-0.000331654
-0.000331599
-0.000331542
-0.000331483
-0.000331422
-0.000331359
-0.000331294
-0.000331228
-0.00033116
-0.000331089
-0.000331017
-0.000330944
-0.000330868
-0.000330791
-0.000330711
-0.00033063
-0.000330548
-0.000330463
-0.000330377
-0.000330289
-0.000330199
-0.000330108
-0.000330015
-0.00032992
-0.000329824
-0.000329726
-0.000329626
-0.000329524
-0.000329421
-0.000329316
-0.00032921
-0.000329102
-0.000328993
-0.000328882
-0.000328769
-0.000328655
-0.000328539
-0.000328421
-0.000328302
-0.000328182
-0.00032806
-0.000327937
-0.000327812
-0.000327685
-0.000327557
-0.000327428
-0.000327297
-0.000327165
-0.000327031
-0.000326896
-0.000326759
-0.000326621
-0.000326482
-0.000326341
-0.000326199
-0.000326055
-0.00032591
-0.000325764
-0.000325616
-0.000325467
-0.000325317
-0.000325165
-0.000325012
-0.000324858
-0.000324702
-0.000324545
-0.000324387
-0.000324227
-0.000324067
-0.000323905
-0.000323741
-0.000323577
-0.000323411
-0.000323244
-0.000323076
-0.000322906
-0.000322736
-0.000322564
-0.000322391
-0.000322217
-0.000322041
-0.000321865
-0.000321687
-0.000321508
-0.000321328
-0.000321147
-0.000320964
-0.000320781
-0.000320596
-0.00032041
-0.000320223
-0.000320035
-0.000319846
-0.000319656
-0.000319465
-0.000319272
-0.000319079
-0.000318884
-0.000318689
-0.000318492
-0.000318294
-0.000318096
-0.000317896
-0.000317695
-0.000317493
-0.00031729
-0.000317086
-0.000316881
-0.000316675
-0.000316468
-0.00031626
-0.000316051
-0.000315841
-0.00031563
-0.000315418
-0.000315205
-0.000314991
-0.000314776
-0.00031456
-0.000314343
-0.000314125
-0.000313906
-0.000313687
-0.000313466
-0.000313244
-0.000313021
-0.000312798
-0.000312573
-0.000312348
-0.000312122
-0.000311894
-0.000311666
-0.000311437
-0.000311207
-0.000310976
-0.000310744
-0.000310511
-0.000310278
-0.000310043
-0.000309807
-0.000309571
-0.000309334
-0.000309096
-0.000308857
-0.000308617
-0.000308376
-0.000308134
-0.000307892
-0.000307648
-0.000307404
-0.000307159
-0.000306913
-0.000306666
-0.000306418
-0.000306169
-0.00030592
-0.000305669
-0.000305418
-0.000305166
-0.000304913
-0.000304659
-0.000304405
-0.000304149
-0.000303893
-0.000303636
-0.000303378
-0.000303119
-0.000302859
-0.000302599
-0.000302337
-0.000302075
-0.000301812
-0.000301548
-0.000301283
-0.000301018
-0.000300751
-0.000300484
-0.000300216
-0.000299947
-0.000299677
-0.000299407
-0.000299135
-0.000298863
-0.00029859
-0.000298316
-0.000298041
-0.000297765
-0.000297489
-0.000297211
-0.000296933
-0.000296654
-0.000296374
-0.000296094
-0.000295812
-0.00029553
-0.000295246
-0.000294962
-0.000294677
-0.000294392
-0.000294105
-0.000293818
-0.000293529
-0.00029324
-0.00029295
-0.000292659
-0.000292367
-0.000292075
-0.000291781
-0.000291487
-0.000291191
-0.000290895
-0.000290598
-0.0002903
-0.000290002
-0.000289702
-0.000289401
-0.0002891
-0.000288798
-0.000288494
-0.00028819
-0.000287885
-0.000287579
-0.000287272
-0.000286965
-0.000286656
-0.000286346
-0.000286036
-0.000285724
-0.000285412
-0.000285099
-0.000284784
-0.000284469
-0.000284153
-0.000283836
-0.000283518
-0.000283199
-0.000282879
-0.000282557
-0.000282235
-0.000281912
-0.000281588
-0.000281263
-0.000280937
-0.00028061
-0.000280282
-0.000279953
-0.000279623
-0.000279292
-0.00027896
-0.000278626
-0.000278292
-0.000277957
-0.00027762
-0.000277283
-0.000276944
-0.000276604
-0.000276263
-0.000275921
-0.000275578
-0.000275234
-0.000274889
-0.000274542
-0.000274194
-0.000273846
-0.000273496
-0.000273144
-0.000272792
-0.000272438
-0.000272083
-0.000271727
-0.00027137
-0.000271011
-0.000270652
-0.00027029
-0.000269928
-0.000269564
-0.000269199
-0.000268833
-0.000268465
-0.000268096
-0.000267726
-0.000267354
-0.000266981
-0.000266607
-0.000266231
-0.000265854
-0.000265475
-0.000265094
-0.000264713
-0.00026433
-0.000263945
-0.000263559
-0.000263171
-0.000262782
-0.000262391
-0.000261998
-0.000261604
-0.000261209
-0.000260811
-0.000260412
-0.000260012
-0.00025961
-0.000259206
-0.0002588
-0.000258392
-0.000257983
-0.000257572
-0.000257159
-0.000256744
-0.000256328
-0.000255909
-0.000255489
-0.000255067
-0.000254643
-0.000254216
-0.000253788
-0.000253358
-0.000252926
-0.000252491
-0.000252055
-0.000251616
-0.000251176
-0.000250733
-0.000250288
-0.00024984
-0.000249391
-0.000248939
-0.000248484
-0.000248028
-0.000247568
-0.000247107
-0.000246643
-0.000246176
-0.000245707
-0.000245236
-0.000244761
-0.000244284
-0.000243805
-0.000243322
-0.000242837
-0.000242349
-0.000241858
-0.000241365
-0.000240868
-0.000240368
-0.000239866
-0.00023936
-0.000238851
-0.000238339
-0.000237823
-0.000237304
-0.000236782
-0.000236257
-0.000235728
-0.000235195
-0.000234659
-0.00023412
-0.000233576
-0.000233029
-0.000232478
-0.000231923
-0.000231364
-0.000230801
-0.000230234
-0.000229663
-0.000229087
-0.000228508
-0.000227923
-0.000227334
-0.000226741
-0.000226143
-0.00022554
-0.000224932
-0.00022432
-0.000223702
-0.000223079
-0.000222451
-0.000221817
-0.000221178
-0.000220533
-0.000219883
-0.000219226
-0.000218564
-0.000217896
-0.000217221
-0.00021654
-0.000215853
-0.000215158
-0.000214457
-0.000213749
-0.000213034
-0.000212312
-0.000211582
-0.000210844
-0.000210099
-0.000209346
-0.000208584
-0.000207814
-0.000207035
-0.000206247
-0.00020545
-0.000204644
-0.000203828
-0.000203002
-0.000202166
-0.00020132
-0.000200462
-0.000199594
-0.000198714
-0.000197823
-0.000196919
-0.000196003
-0.000195074
-0.000194132
-0.000193176
-0.000192206
-0.000191222
-0.000190222
-0.000189207
-0.000188175
-0.000187127
-0.000186061
-0.000184977
-0.000183874
-0.000182752
-0.00018161
-0.000180447
-0.000179262
-0.000178054
-0.000176822
-0.000175566
-0.000174283
-0.000172973
-0.000171635
-0.000170267
-0.000168868
-0.000167436
-0.000165969
-0.000164466
-0.000162924
-0.000161341
-0.000159716
-0.000158044
-0.000156324
-0.000154552
-0.000152725
-0.000150839
-0.000148889
-0.000146872
-0.00014478
-0.000142609
-0.000140352
-0.000138
-0.000135545
-0.000132977
-0.000130283
-0.00012745
-0.000124461
-0.000121296
-0.000117932
-0.00011434
-0.000110483
-0.000106315
-0.000101778
-9.67944e-05
-9.12578e-05
-8.5021e-05
-7.78697e-05
-6.94801e-05
-5.93481e-05
-4.67118e-05
-3.07243e-05
-1.14949e-05
)
;
    }
    bot_wall
    {
        type            calculated;
        value           uniform 0;
    }
    outlet
    {
        type            cyclic;
        value           nonuniform List<scalar> 
1000
(
1.14949e-05
3.07243e-05
4.67118e-05
5.93481e-05
6.94801e-05
7.78697e-05
8.50211e-05
9.12578e-05
9.67944e-05
0.000101778
0.000106315
0.000110483
0.00011434
0.000117932
0.000121296
0.000124461
0.00012745
0.000130283
0.000132977
0.000135545
0.000138
0.000140352
0.000142609
0.00014478
0.000146872
0.00014889
0.000150839
0.000152725
0.000154552
0.000156324
0.000158044
0.000159716
0.000161341
0.000162924
0.000164466
0.000165969
0.000167436
0.000168868
0.000170267
0.000171635
0.000172973
0.000174283
0.000175566
0.000176822
0.000178054
0.000179262
0.000180447
0.00018161
0.000182752
0.000183874
0.000184977
0.000186061
0.000187127
0.000188175
0.000189207
0.000190222
0.000191222
0.000192206
0.000193176
0.000194132
0.000195075
0.000196003
0.000196919
0.000197823
0.000198714
0.000199594
0.000200462
0.00020132
0.000202166
0.000203002
0.000203828
0.000204644
0.00020545
0.000206247
0.000207035
0.000207814
0.000208584
0.000209346
0.000210099
0.000210844
0.000211582
0.000212312
0.000213034
0.000213749
0.000214457
0.000215158
0.000215853
0.00021654
0.000217221
0.000217896
0.000218564
0.000219226
0.000219883
0.000220533
0.000221178
0.000221817
0.000222451
0.000223079
0.000223702
0.00022432
0.000224932
0.00022554
0.000226143
0.000226741
0.000227334
0.000227923
0.000228508
0.000229087
0.000229663
0.000230234
0.000230801
0.000231364
0.000231923
0.000232478
0.000233029
0.000233576
0.00023412
0.000234659
0.000235195
0.000235728
0.000236257
0.000236782
0.000237304
0.000237823
0.000238339
0.000238851
0.00023936
0.000239866
0.000240368
0.000240868
0.000241365
0.000241858
0.000242349
0.000242837
0.000243322
0.000243805
0.000244284
0.000244761
0.000245236
0.000245707
0.000246176
0.000246643
0.000247107
0.000247568
0.000248028
0.000248484
0.000248939
0.000249391
0.00024984
0.000250288
0.000250733
0.000251176
0.000251616
0.000252055
0.000252491
0.000252926
0.000253358
0.000253788
0.000254216
0.000254643
0.000255067
0.000255489
0.000255909
0.000256328
0.000256744
0.000257159
0.000257572
0.000257983
0.000258392
0.0002588
0.000259206
0.00025961
0.000260012
0.000260412
0.000260811
0.000261209
0.000261604
0.000261998
0.000262391
0.000262782
0.000263171
0.000263559
0.000263945
0.00026433
0.000264713
0.000265095
0.000265475
0.000265854
0.000266231
0.000266607
0.000266981
0.000267354
0.000267726
0.000268096
0.000268465
0.000268833
0.000269199
0.000269564
0.000269928
0.000270291
0.000270652
0.000271011
0.00027137
0.000271727
0.000272083
0.000272438
0.000272792
0.000273144
0.000273496
0.000273846
0.000274194
0.000274542
0.000274889
0.000275234
0.000275578
0.000275921
0.000276263
0.000276604
0.000276944
0.000277283
0.00027762
0.000277957
0.000278292
0.000278626
0.00027896
0.000279292
0.000279623
0.000279953
0.000280282
0.00028061
0.000280937
0.000281263
0.000281588
0.000281912
0.000282235
0.000282557
0.000282879
0.000283199
0.000283518
0.000283836