/*--------------------------------*- C++ -*----------------------------------*\
| =========                 |                                                 |
| \\      /  F ield         | OpenFOAM: The Open Source CFD Toolbox           |
|  \\    /   O peration     | Version:  2406                                  |
|   \\  /    A nd           | Website:  www.openfoam.com                      |
|    \\/     M anipulation  |                                                 |
\*---------------------------------------------------------------------------*/
FoamFile
{
    version     2.0;
    format      ascii;
    arch        "LSB;label=32;scalar=64";
    class       volVectorField;
    location    "22.855";
    object      U;
}
// * * * * * * * * * * * * * * * * * * * * * * * * * * * * * * * * * * * * * //

dimensions      [0 1 -1 0 0 0 0];

internalField   nonuniform List<vector> 
1000
(
(0.114949 -2.88088e-18 0)
(0.307243 -5.81466e-18 0)
(0.467118 -5.61455e-18 0)
(0.593481 -5.39814e-18 0)
(0.694801 -5.32925e-18 0)
(0.778697 -5.35123e-18 0)
(0.850211 -5.4034e-18 0)
(0.912578 -5.38436e-18 0)
(0.967944 -5.33764e-18 0)
(1.01778 -5.29265e-18 0)
(1.06315 -5.28735e-18 0)
(1.10483 -5.37564e-18 0)
(1.1434 -5.53081e-18 0)
(1.17932 -5.62432e-18 0)
(1.21296 -5.61075e-18 0)
(1.24461 -5.59528e-18 0)
(1.2745 -5.58179e-18 0)
(1.30283 -5.54895e-18 0)
(1.32977 -5.53361e-18 0)
(1.35545 -5.53399e-18 0)
(1.38 -5.53544e-18 0)
(1.40352 -5.54165e-18 0)
(1.42609 -5.55158e-18 0)
(1.4478 -5.56435e-18 0)
(1.46872 -5.57923e-18 0)
(1.4889 -5.59563e-18 0)
(1.50839 -5.61307e-18 0)
(1.52725 -5.63116e-18 0)
(1.54552 -5.64962e-18 0)
(1.56324 -5.66822e-18 0)
(1.58044 -5.68677e-18 0)
(1.59716 -5.70516e-18 0)
(1.61341 -5.72329e-18 0)
(1.62924 -5.74109e-18 0)
(1.64466 -5.75853e-18 0)
(1.65969 -5.77559e-18 0)
(1.67436 -5.79224e-18 0)
(1.68868 -5.8085e-18 0)
(1.70267 -5.82435e-18 0)
(1.71635 -5.83982e-18 0)
(1.72973 -5.85492e-18 0)
(1.74283 -5.86966e-18 0)
(1.75566 -5.88405e-18 0)
(1.76822 -5.89812e-18 0)
(1.78054 -5.91188e-18 0)
(1.79262 -5.92534e-18 0)
(1.80447 -5.93852e-18 0)
(1.8161 -5.95143e-18 0)
(1.82752 -5.96409e-18 0)
(1.83874 -5.97651e-18 0)
(1.84977 -5.98871e-18 0)
(1.86061 -6.00069e-18 0)
(1.87127 -6.01246e-18 0)
(1.88175 -6.02404e-18 0)
(1.89207 -6.03543e-18 0)
(1.90222 -6.04664e-18 0)
(1.91222 -6.05769e-18 0)
(1.92206 -6.06858e-18 0)
(1.93176 -6.07932e-18 0)
(1.94132 -6.08992e-18 0)
(1.95075 -6.10038e-18 0)
(1.96003 -6.11072e-18 0)
(1.96919 -6.12093e-18 0)
(1.97823 -6.13104e-18 0)
(1.98714 -6.14104e-18 0)
(1.99594 -6.15095e-18 0)
(2.00462 -6.16077e-18 0)
(2.0132 -6.17052e-18 0)
(2.02166 -6.18019e-18 0)
(2.03002 -6.1898e-18 0)
(2.03828 -6.19935e-18 0)
(2.04644 -6.20886e-18 0)
(2.0545 -6.21833e-18 0)
(2.06247 -6.22778e-18 0)
(2.07035 -6.2372e-18 0)
(2.07814 -6.24661e-18 0)
(2.08584 -6.25602e-18 0)
(2.09346 -6.26544e-18 0)
(2.10099 -6.27488e-18 0)
(2.10844 -6.28434e-18 0)
(2.11582 -6.29384e-18 0)
(2.12312 -6.30339e-18 0)
(2.13034 -6.31299e-18 0)
(2.13749 -6.32267e-18 0)
(2.14457 -6.33242e-18 0)
(2.15158 -6.34227e-18 0)
(2.15853 -6.35222e-18 0)
(2.1654 -6.36228e-18 0)
(2.17221 -6.37247e-18 0)
(2.17896 -6.3828e-18 0)
(2.18564 -6.39328e-18 0)
(2.19226 -6.40393e-18 0)
(2.19883 -6.41476e-18 0)
(2.20533 -6.42578e-18 0)
(2.21178 -6.43701e-18 0)
(2.21817 -6.44845e-18 0)
(2.22451 -6.46012e-18 0)
(2.23079 -6.47203e-18 0)
(2.23702 -6.48418e-18 0)
(2.2432 -6.49658e-18 0)
(2.24932 -6.50922e-18 0)
(2.2554 -6.52211e-18 0)
(2.26143 -6.53523e-18 0)
(2.26741 -6.54855e-18 0)
(2.27334 -6.56206e-18 0)
(2.27923 -6.5757e-18 0)
(2.28508 -6.58941e-18 0)
(2.29087 -6.60313e-18 0)
(2.29663 -6.61676e-18 0)
(2.30234 -6.63017e-18 0)
(2.30801 -6.64322e-18 0)
(2.31364 -6.65572e-18 0)
(2.31923 -6.66746e-18 0)
(2.32478 -6.67817e-18 0)
(2.33029 -6.68754e-18 0)
(2.33576 -6.69583e-18 0)
(2.3412 -6.70267e-18 0)
(2.34659 -6.70768e-18 0)
(2.35195 -6.71044e-18 0)
(2.35728 -6.71048e-18 0)
(2.36257 -6.70787e-18 0)
(2.36782 -6.70208e-18 0)
(2.37304 -6.69263e-18 0)
(2.37823 -6.679e-18 0)
(2.38339 -6.66128e-18 0)
(2.38851 -6.63903e-18 0)
(2.3936 -6.61188e-18 0)
(2.39866 -6.58018e-18 0)
(2.40368 -6.54389e-18 0)
(2.40868 -6.5032e-18 0)
(2.41365 -6.45853e-18 0)
(2.41858 -6.40997e-18 0)
(2.42349 -6.35777e-18 0)
(2.42837 -6.30282e-18 0)
(2.43322 -6.24636e-18 0)
(2.43805 -6.20118e-18 0)
(2.44284 -6.19192e-18 0)
(2.44761 -6.20568e-18 0)
(2.45236 -6.22327e-18 0)
(2.45707 -6.23371e-18 0)
(2.46176 -6.25375e-18 0)
(2.46643 -6.27321e-18 0)
(2.47107 -6.28364e-18 0)
(2.47568 -6.30149e-18 0)
(2.48028 -6.31306e-18 0)
(2.48484 -6.32233e-18 0)
(2.48939 -6.32994e-18 0)
(2.49391 -6.33726e-18 0)
(2.4984 -6.34523e-18 0)
(2.50288 -6.35487e-18 0)
(2.50733 -6.36684e-18 0)
(2.51176 -6.38149e-18 0)
(2.51616 -6.39892e-18 0)
(2.52055 -6.41902e-18 0)
(2.52491 -6.44203e-18 0)
(2.52926 -6.46759e-18 0)
(2.53358 -6.49532e-18 0)
(2.53788 -6.5253e-18 0)
(2.54216 -6.55711e-18 0)
(2.54643 -6.59034e-18 0)
(2.55067 -6.62463e-18 0)
(2.55489 -6.66021e-18 0)
(2.55909 -6.69683e-18 0)
(2.56328 -6.73434e-18 0)
(2.56744 -6.77274e-18 0)
(2.57159 -6.81273e-18 0)
(2.57572 -6.85475e-18 0)
(2.57983 -6.89962e-18 0)
(2.58392 -6.94864e-18 0)
(2.588 -7.00106e-18 0)
(2.59206 -7.09926e-18 0)
(2.5961 -6.92645e-18 0)
(2.60012 -6.75303e-18 0)
(2.60412 -6.84638e-18 0)
(2.60811 -6.89119e-18 0)
(2.61209 -6.93e-18 0)
(2.61604 -6.96219e-18 0)
(2.61998 -6.98921e-18 0)
(2.62391 -7.01206e-18 0)
(2.62782 -7.03147e-18 0)
(2.63171 -7.0479e-18 0)
(2.63559 -7.06172e-18 0)
(2.63945 -7.07317e-18 0)
(2.6433 -7.0824e-18 0)
(2.64713 -7.08951e-18 0)
(2.65095 -7.09457e-18 0)
(2.65475 -7.09756e-18 0)
(2.65854 -7.09847e-18 0)
(2.66231 -7.09722e-18 0)
(2.66607 -7.09366e-18 0)
(2.66981 -7.0876e-18 0)
(2.67354 -7.07875e-18 0)
(2.67726 -7.0667e-18 0)
(2.68096 -7.05143e-18 0)
(2.68465 -7.03235e-18 0)
(2.68833 -7.00931e-18 0)
(2.69199 -6.9822e-18 0)
(2.69564 -6.95163e-18 0)
(2.69928 -6.9187e-18 0)
(2.70291 -6.88538e-18 0)
(2.70652 -6.85612e-18 0)
(2.71011 -6.83341e-18 0)
(2.7137 -6.84229e-18 0)
(2.71727 -6.97201e-18 0)
(2.72083 -7.10079e-18 0)
(2.72438 -7.10675e-18 0)
(2.72792 -7.07929e-18 0)
(2.73144 -7.0436e-18 0)
(2.73496 -7.00214e-18 0)
(2.73846 -6.95927e-18 0)
(2.74194 -6.91733e-18 0)
(2.74542 -6.87735e-18 0)
(2.74889 -6.83945e-18 0)
(2.75234 -6.80351e-18 0)
(2.75578 -6.76936e-18 0)
(2.75921 -6.73639e-18 0)
(2.76263 -6.70452e-18 0)
(2.76604 -6.67331e-18 0)
(2.76944 -6.64239e-18 0)
(2.77283 -6.61199e-18 0)
(2.7762 -6.58156e-18 0)
(2.77957 -6.55104e-18 0)
(2.78292 -6.52047e-18 0)
(2.78626 -6.48987e-18 0)
(2.7896 -6.45932e-18 0)
(2.79292 -6.42895e-18 0)
(2.79623 -6.39886e-18 0)
(2.79953 -6.3692e-18 0)
(2.80282 -6.34008e-18 0)
(2.8061 -6.31161e-18 0)
(2.80937 -6.28393e-18 0)
(2.81263 -6.2567e-18 0)
(2.81588 -6.23006e-18 0)
(2.81912 -6.20409e-18 0)
(2.82235 -6.17886e-18 0)
(2.82557 -6.1544e-18 0)
(2.82879 -6.13076e-18 0)
(2.83199 -6.10792e-18 0)
(2.83518 -6.08589e-18 0)
(2.83836 -6.06463e-18 0)
(2.84153 -6.04412e-18 0)
(2.84469 -6.0243e-18 0)
(2.84784 -6.00512e-18 0)
(2.85099 -5.98651e-18 0)
(2.85412 -5.96884e-18 0)
(2.85724 -5.95205e-18 0)
(2.86036 -5.93612e-18 0)
(2.86346 -5.92058e-18 0)
(2.86656 -5.9054e-18 0)
(2.86965 -5.89096e-18 0)
(2.87272 -5.87719e-18 0)
(2.87579 -5.86402e-18 0)
(2.87885 -5.85139e-18 0)
(2.8819 -5.83923e-18 0)
(2.88494 -5.82749e-18 0)
(2.88798 -5.81612e-18 0)
(2.891 -5.80506e-18 0)
(2.89401 -5.79427e-18 0)
(2.89702 -5.78371e-18 0)
(2.90002 -5.77333e-18 0)
(2.903 -5.7631e-18 0)
(2.90598 -5.75298e-18 0)
(2.90895 -5.74295e-18 0)
(2.91191 -5.73298e-18 0)
(2.91487 -5.72304e-18 0)
(2.91781 -5.7131e-18 0)
(2.92075 -5.70316e-18 0)
(2.92367 -5.69318e-18 0)
(2.92659 -5.68316e-18 0)
(2.9295 -5.67308e-18 0)
(2.9324 -5.66293e-18 0)
(2.93529 -5.6527e-18 0)
(2.93818 -5.64238e-18 0)
(2.94105 -5.63196e-18 0)
(2.94392 -5.62143e-18 0)
(2.94677 -5.6108e-18 0)
(2.94962 -5.60004e-18 0)
(2.95246 -5.58917e-18 0)
(2.9553 -5.57818e-18 0)
(2.95812 -5.56707e-18 0)
(2.96094 -5.55583e-18 0)
(2.96374 -5.54446e-18 0)
(2.96654 -5.53297e-18 0)
(2.96933 -5.52135e-18 0)
(2.97211 -5.50961e-18 0)
(2.97489 -5.49775e-18 0)
(2.97765 -5.48576e-18 0)
(2.98041 -5.47365e-18 0)
(2.98316 -5.46142e-18 0)
(2.9859 -5.44907e-18 0)
(2.98863 -5.43661e-18 0)
(2.99135 -5.42404e-18 0)
(2.99407 -5.41135e-18 0)
(2.99677 -5.39856e-18 0)
(2.99947 -5.38566e-18 0)
(3.00216 -5.37265e-18 0)
(3.00484 -5.35955e-18 0)
(3.00751 -5.34634e-18 0)
(3.01018 -5.33304e-18 0)
(3.01283 -5.31965e-18 0)
(3.01548 -5.30617e-18 0)
(3.01812 -5.2926e-18 0)
(3.02075 -5.27895e-18 0)
(3.02337 -5.26521e-18 0)
(3.02599 -5.25139e-18 0)
(3.02859 -5.2375e-18 0)
(3.03119 -5.22353e-18 0)
(3.03378 -5.20948e-18 0)
(3.03636 -5.19537e-18 0)
(3.03893 -5.18119e-18 0)
(3.04149 -5.16694e-18 0)
(3.04405 -5.15263e-18 0)
(3.04659 -5.13826e-18 0)
(3.04913 -5.12383e-18 0)
(3.05166 -5.10934e-18 0)
(3.05418 -5.09479e-18 0)
(3.05669 -5.08019e-18 0)
(3.0592 -5.06554e-18 0)
(3.06169 -5.05085e-18 0)
(3.06418 -5.0361e-18 0)
(3.06666 -5.0213e-18 0)
(3.06913 -5.00646e-18 0)
(3.07159 -4.99158e-18 0)
(3.07404 -4.97666e-18 0)
(3.07648 -4.96169e-18 0)
(3.07892 -4.94669e-18 0)
(3.08134 -4.93165e-18 0)
(3.08376 -4.91657e-18 0)
(3.08617 -4.90146e-18 0)
(3.08857 -4.88632e-18 0)
(3.09096 -4.87114e-18 0)
(3.09334 -4.85593e-18 0)
(3.09571 -4.84069e-18 0)
(3.09807 -4.82542e-18 0)
(3.10043 -4.81012e-18 0)
(3.10278 -4.79479e-18 0)
(3.10511 -4.77944e-18 0)
(3.10744 -4.76407e-18 0)
(3.10976 -4.74866e-18 0)
(3.11207 -4.73324e-18 0)
(3.11437 -4.71779e-18 0)
(3.11666 -4.70232e-18 0)
(3.11894 -4.68682e-18 0)
(3.12122 -4.67131e-18 0)
(3.12348 -4.65578e-18 0)
(3.12573 -4.64022e-18 0)
(3.12798 -4.62465e-18 0)
(3.13021 -4.60906e-18 0)
(3.13244 -4.59345e-18 0)
(3.13466 -4.57782e-18 0)
(3.13687 -4.56218e-18 0)
(3.13906 -4.54652e-18 0)
(3.14125 -4.53085e-18 0)
(3.14343 -4.51516e-18 0)
(3.1456 -4.49946e-18 0)
(3.14776 -4.48374e-18 0)
(3.14991 -4.46801e-18 0)
(3.15205 -4.45226e-18 0)
(3.15418 -4.43651e-18 0)
(3.1563 -4.42074e-18 0)
(3.15841 -4.40496e-18 0)
(3.16051 -4.38916e-18 0)
(3.1626 -4.37336e-18 0)
(3.16468 -4.35754e-18 0)
(3.16675 -4.34172e-18 0)
(3.16881 -4.32588e-18 0)
(3.17086 -4.31003e-18 0)
(3.1729 -4.29418e-18 0)
(3.17493 -4.27831e-18 0)
(3.17695 -4.26244e-18 0)
(3.17896 -4.24656e-18 0)
(3.18096 -4.23067e-18 0)
(3.18294 -4.21477e-18 0)
(3.18492 -4.19886e-18 0)
(3.18689 -4.18295e-18 0)
(3.18884 -4.16703e-18 0)
(3.19079 -4.1511e-18 0)
(3.19272 -4.13516e-18 0)
(3.19465 -4.11922e-18 0)
(3.19656 -4.10328e-18 0)
(3.19846 -4.08732e-18 0)
(3.20035 -4.07136e-18 0)
(3.20223 -4.0554e-18 0)
(3.2041 -4.03943e-18 0)
(3.20596 -4.02346e-18 0)
(3.20781 -4.00748e-18 0)
(3.20964 -3.99149e-18 0)
(3.21147 -3.97551e-18 0)
(3.21328 -3.95952e-18 0)
(3.21508 -3.94352e-18 0)
(3.21687 -3.92752e-18 0)
(3.21865 -3.91152e-18 0)
(3.22041 -3.89551e-18 0)
(3.22217 -3.8795e-18 0)
(3.22391 -3.86349e-18 0)
(3.22564 -3.84748e-18 0)
(3.22736 -3.83146e-18 0)
(3.22906 -3.81544e-18 0)
(3.23076 -3.79942e-18 0)
(3.23244 -3.7834e-18 0)
(3.23411 -3.76738e-18 0)
(3.23577 -3.75135e-18 0)
(3.23741 -3.73532e-18 0)
(3.23905 -3.7193e-18 0)
(3.24067 -3.70327e-18 0)
(3.24227 -3.68724e-18 0)
(3.24387 -3.67121e-18 0)
(3.24545 -3.65518e-18 0)
(3.24702 -3.63915e-18 0)
(3.24858 -3.62311e-18 0)
(3.25012 -3.60708e-18 0)
(3.25165 -3.59105e-18 0)
(3.25317 -3.57502e-18 0)
(3.25467 -3.55899e-18 0)
(3.25616 -3.54297e-18 0)
(3.25764 -3.52694e-18 0)
(3.2591 -3.51091e-18 0)
(3.26055 -3.49489e-18 0)
(3.26199 -3.47887e-18 0)
(3.26341 -3.46285e-18 0)
(3.26482 -3.44683e-18 0)
(3.26621 -3.43081e-18 0)
(3.26759 -3.4148e-18 0)
(3.26896 -3.39878e-18 0)
(3.27031 -3.38277e-18 0)
(3.27165 -3.36677e-18 0)
(3.27297 -3.35077e-18 0)
(3.27428 -3.33477e-18 0)
(3.27557 -3.31877e-18 0)
(3.27685 -3.30278e-18 0)
(3.27812 -3.28679e-18 0)
(3.27937 -3.27081e-18 0)
(3.2806 -3.25483e-18 0)
(3.28182 -3.23886e-18 0)
(3.28302 -3.22289e-18 0)
(3.28421 -3.20693e-18 0)
(3.28539 -3.19098e-18 0)
(3.28655 -3.17503e-18 0)
(3.28769 -3.15908e-18 0)
(3.28882 -3.14315e-18 0)
(3.28993 -3.12722e-18 0)
(3.29102 -3.11129e-18 0)
(3.2921 -3.09538e-18 0)
(3.29316 -3.07947e-18 0)
(3.29421 -3.06358e-18 0)
(3.29524 -3.04769e-18 0)
(3.29626 -3.03181e-18 0)
(3.29725 -3.01594e-18 0)
(3.29824 -3.00008e-18 0)
(3.2992 -2.98423e-18 0)
(3.30015 -2.96839e-18 0)
(3.30108 -2.95256e-18 0)
(3.30199 -2.93674e-18 0)
(3.30289 -2.92094e-18 0)
(3.30377 -2.90515e-18 0)
(3.30463 -2.88937e-18 0)
(3.30548 -2.87361e-18 0)
(3.3063 -2.85786e-18 0)
(3.30711 -2.84212e-18 0)
(3.30791 -2.8264e-18 0)
(3.30868 -2.8107e-18 0)
(3.30944 -2.79501e-18 0)
(3.31017 -2.77935e-18 0)
(3.31089 -2.76369e-18 0)
(3.3116 -2.74806e-18 0)
(3.31228 -2.73245e-18 0)
(3.31294 -2.71685e-18 0)
(3.31359 -2.70128e-18 0)
(3.31422 -2.68572e-18 0)
(3.31483 -2.67019e-18 0)
(3.31542 -2.65468e-18 0)
(3.31599 -2.6392e-18 0)
(3.31654 -2.62373e-18 0)
(3.31708 -2.60829e-18 0)
(3.31759 -2.59288e-18 0)
(3.31809 -2.5775e-18 0)
(3.31857 -2.56214e-18 0)
(3.31902 -2.5468e-18 0)
(3.31946 -2.5315e-18 0)
(3.31988 -2.51622e-18 0)
(3.32028 -2.50098e-18 0)
(3.32066 -2.48576e-18 0)
(3.32102 -2.47058e-18 0)
(3.32136 -2.45543e-18 0)
(3.32168 -2.44031e-18 0)
(3.32198 -2.42523e-18 0)
(3.32226 -2.41018e-18 0)
(3.32252 -2.39516e-18 0)
(3.32276 -2.38019e-18 0)
(3.32298 -2.36524e-18 0)
(3.32319 -2.35034e-18 0)
(3.32337 -2.33547e-18 0)
(3.32353 -2.32062e-18 0)
(3.32367 -2.30581e-18 0)
(3.32379 -2.29103e-18 0)
(3.32389 -2.27628e-18 0)
(3.32397 -2.26155e-18 0)
(3.32403 -2.24686e-18 0)
(3.32407 -2.2322e-18 0)
(3.32409 -2.21758e-18 0)
(3.32409 -2.20299e-18 0)
(3.32407 -2.18843e-18 0)
(3.32403 -2.17392e-18 0)
(3.32397 -2.15944e-18 0)
(3.32389 -2.145e-18 0)
(3.32379 -2.1306e-18 0)
(3.32367 -2.11624e-18 0)
(3.32353 -2.10192e-18 0)
(3.32337 -2.08764e-18 0)
(3.32319 -2.07338e-18 0)
(3.32298 -2.05918e-18 0)
(3.32276 -2.04504e-18 0)
(3.32252 -2.03095e-18 0)
(3.32226 -2.01692e-18 0)
(3.32198 -2.00294e-18 0)
(3.32168 -1.98902e-18 0)
(3.32136 -1.97516e-18 0)
(3.32102 -1.96136e-18 0)
(3.32066 -1.94761e-18 0)
(3.32028 -1.93393e-18 0)
(3.31988 -1.9203e-18 0)
(3.31946 -1.90674e-18 0)
(3.31902 -1.89324e-18 0)
(3.31857 -1.8798e-18 0)
(3.31809 -1.86642e-18 0)
(3.31759 -1.85311e-18 0)
(3.31708 -1.83986e-18 0)
(3.31654 -1.82667e-18 0)
(3.31599 -1.81355e-18 0)
(3.31542 -1.80049e-18 0)
(3.31483 -1.7875e-18 0)
(3.31422 -1.77457e-18 0)
(3.31359 -1.76171e-18 0)
(3.31294 -1.74891e-18 0)
(3.31228 -1.73619e-18 0)
(3.3116 -1.72353e-18 0)
(3.31089 -1.71093e-18 0)
(3.31017 -1.69841e-18 0)
(3.30944 -1.68595e-18 0)
(3.30868 -1.67356e-18 0)
(3.30791 -1.66124e-18 0)
(3.30711 -1.64899e-18 0)
(3.3063 -1.63681e-18 0)
(3.30548 -1.62469e-18 0)
(3.30463 -1.61265e-18 0)
(3.30377 -1.60067e-18 0)
(3.30289 -1.58877e-18 0)
(3.30199 -1.57693e-18 0)
(3.30108 -1.56516e-18 0)
(3.30015 -1.55347e-18 0)
(3.2992 -1.54184e-18 0)
(3.29824 -1.53028e-18 0)
(3.29726 -1.51879e-18 0)
(3.29626 -1.50738e-18 0)
(3.29524 -1.49603e-18 0)
(3.29421 -1.48475e-18 0)
(3.29316 -1.47354e-18 0)
(3.2921 -1.4624e-18 0)
(3.29102 -1.45133e-18 0)
(3.28993 -1.44034e-18 0)
(3.28882 -1.42941e-18 0)
(3.28769 -1.41855e-18 0)
(3.28655 -1.40776e-18 0)
(3.28539 -1.39703e-18 0)
(3.28421 -1.38638e-18 0)
(3.28302 -1.3758e-18 0)
(3.28182 -1.36528e-18 0)
(3.2806 -1.35484e-18 0)
(3.27937 -1.34446e-18 0)
(3.27812 -1.33415e-18 0)
(3.27685 -1.32391e-18 0)
(3.27557 -1.31374e-18 0)
(3.27428 -1.30364e-18 0)
(3.27297 -1.2936e-18 0)
(3.27165 -1.28363e-18 0)
(3.27031 -1.27373e-18 0)
(3.26896 -1.26389e-18 0)
(3.26759 -1.25412e-18 0)
(3.26621 -1.24442e-18 0)
(3.26482 -1.23478e-18 0)
(3.26341 -1.22521e-18 0)
(3.26199 -1.21571e-18 0)
(3.26055 -1.20627e-18 0)
(3.2591 -1.1969e-18 0)
(3.25764 -1.18759e-18 0)
(3.25616 -1.17834e-18 0)
(3.25467 -1.16916e-18 0)
(3.25317 -1.16005e-18 0)
(3.25165 -1.151e-18 0)
(3.25012 -1.14201e-18 0)
(3.24858 -1.13308e-18 0)
(3.24702 -1.12422e-18 0)
(3.24545 -1.11542e-18 0)
(3.24387 -1.10669e-18 0)
(3.24227 -1.09801e-18 0)
(3.24067 -1.0894e-18 0)
(3.23905 -1.08085e-18 0)
(3.23741 -1.07236e-18 0)
(3.23577 -1.06393e-18 0)
(3.23411 -1.05556e-18 0)
(3.23244 -1.04725e-18 0)
(3.23076 -1.039e-18 0)
(3.22906 -1.03081e-18 0)
(3.22736 -1.02268e-18 0)
(3.22564 -1.01461e-18 0)
(3.22391 -1.0066e-18 0)
(3.22217 -9.98642e-19 0)
(3.22041 -9.90746e-19 0)
(3.21865 -9.82908e-19 0)
(3.21687 -9.75127e-19 0)
(3.21508 -9.67403e-19 0)
(3.21328 -9.59737e-19 0)
(3.21147 -9.52126e-19 0)
(3.20964 -9.44572e-19 0)
(3.20781 -9.37073e-19 0)
(3.20596 -9.2963e-19 0)
(3.2041 -9.22242e-19 0)
(3.20223 -9.14909e-19 0)
(3.20035 -9.07631e-19 0)
(3.19846 -9.00407e-19 0)
(3.19656 -8.93236e-19 0)
(3.19465 -8.8612e-19 0)
(3.19272 -8.79056e-19 0)
(3.19079 -8.72046e-19 0)
(3.18884 -8.65088e-19 0)
(3.18689 -8.58182e-19 0)
(3.18492 -8.51329e-19 0)
(3.18294 -8.44527e-19 0)
(3.18096 -8.37776e-19 0)
(3.17896 -8.31077e-19 0)
(3.17695 -8.24428e-19 0)
(3.17493 -8.1783e-19 0)
(3.1729 -8.11282e-19 0)
(3.17086 -8.04784e-19 0)
(3.16881 -7.98335e-19 0)
(3.16675 -7.91935e-19 0)
(3.16468 -7.85585e-19 0)
(3.1626 -7.79283e-19 0)
(3.16051 -7.73029e-19 0)
(3.15841 -7.66823e-19 0)
(3.1563 -7.60664e-19 0)
(3.15418 -7.54554e-19 0)
(3.15205 -7.4849e-19 0)
(3.14991 -7.42473e-19 0)
(3.14776 -7.36502e-19 0)
(3.1456 -7.30578e-19 0)
(3.14343 -7.24699e-19 0)
(3.14125 -7.18866e-19 0)
(3.13906 -7.13078e-19 0)
(3.13687 -7.07335e-19 0)
(3.13466 -7.01637e-19 0)
(3.13244 -6.95983e-19 0)
(3.13021 -6.90373e-19 0)
(3.12798 -6.84807e-19 0)
(3.12573 -6.79285e-19 0)
(3.12348 -6.73805e-19 0)
(3.12122 -6.68369e-19 0)
(3.11894 -6.62975e-19 0)
(3.11666 -6.57624e-19 0)
(3.11437 -6.52315e-19 0)
(3.11207 -6.47047e-19 0)
(3.10976 -6.41821e-19 0)
(3.10744 -6.36636e-19 0)
(3.10511 -6.31492e-19 0)
(3.10278 -6.26389e-19 0)
(3.10043 -6.21326e-19 0)
(3.09807 -6.16303e-19 0)
(3.09571 -6.1132e-19 0)
(3.09334 -6.06377e-19 0)
(3.09096 -6.01473e-19 0)
(3.08857 -5.96608e-19 0)
(3.08617 -5.91782e-19 0)
(3.08376 -5.86994e-19 0)
(3.08134 -5.82244e-19 0)
(3.07892 -5.77532e-19 0)
(3.07648 -5.72858e-19 0)
(3.07404 -5.68222e-19 0)
(3.07159 -5.63622e-19 0)
(3.06913 -5.59059e-19 0)
(3.06666 -5.54534e-19 0)
(3.06418 -5.50044e-19 0)
(3.06169 -5.4559e-19 0)
(3.0592 -5.41173e-19 0)
(3.05669 -5.36791e-19 0)
(3.05418 -5.32444e-19 0)
(3.05166 -5.28133e-19 0)
(3.04913 -5.23856e-19 0)
(3.04659 -5.19614e-19 0)
(3.04405 -5.15406e-19 0)
(3.04149 -5.11232e-19 0)
(3.03893 -5.07093e-19 0)
(3.03636 -5.02986e-19 0)
(3.03378 -4.98914e-19 0)
(3.03119 -4.94874e-19 0)
(3.02859 -4.90867e-19 0)
(3.02599 -4.86893e-19 0)
(3.02337 -4.82951e-19 0)
(3.02075 -4.79042e-19 0)
(3.01812 -4.75164e-19 0)
(3.01548 -4.71318e-19 0)
(3.01283 -4.67504e-19 0)
(3.01018 -4.63721e-19 0)
(3.00751 -4.59969e-19 0)
(3.00484 -4.56248e-19 0)
(3.00216 -4.52557e-19 0)
(2.99947 -4.48896e-19 0)
(2.99677 -4.45266e-19 0)
(2.99407 -4.41666e-19 0)
(2.99135 -4.38095e-19 0)
(2.98863 -4.34554e-19 0)
(2.9859 -4.31042e-19 0)
(2.98316 -4.27559e-19 0)
(2.98041 -4.24104e-19 0)
(2.97765 -4.20679e-19 0)
(2.97489 -4.17281e-19 0)
(2.97211 -4.13912e-19 0)
(2.96933 -4.10571e-19 0)
(2.96654 -4.07258e-19 0)
(2.96374 -4.03972e-19 0)
(2.96094 -4.00713e-19 0)
(2.95812 -3.97482e-19 0)
(2.9553 -3.94277e-19 0)
(2.95246 -3.91099e-19 0)
(2.94962 -3.87948e-19 0)
(2.94677 -3.84822e-19 0)
(2.94392 -3.81723e-19 0)
(2.94105 -3.7865e-19 0)
(2.93818 -3.75603e-19 0)
(2.93529 -3.72581e-19 0)
(2.9324 -3.69584e-19 0)
(2.9295 -3.66613e-19 0)
(2.92659 -3.63666e-19 0)
(2.92367 -3.60744e-19 0)
(2.92075 -3.57847e-19 0)
(2.91781 -3.54974e-19 0)
(2.91487 -3.52125e-19 0)
(2.91191 -3.493e-19 0)
(2.90895 -3.46499e-19 0)
(2.90598 -3.43722e-19 0)
(2.903 -3.40968e-19 0)
(2.90002 -3.38237e-19 0)
(2.89702 -3.35529e-19 0)
(2.89401 -3.32844e-19 0)
(2.891 -3.30182e-19 0)
(2.88798 -3.27543e-19 0)
(2.88494 -3.24925e-19 0)
(2.8819 -3.2233e-19 0)
(2.87885 -3.19757e-19 0)
(2.87579 -3.17206e-19 0)
(2.87272 -3.14676e-19 0)
(2.86965 -3.12168e-19 0)
(2.86656 -3.09681e-19 0)
(2.86346 -3.07215e-19 0)
(2.86036 -3.04771e-19 0)
(2.85724 -3.02347e-19 0)
(2.85412 -2.99943e-19 0)
(2.85099 -2.97561e-19 0)
(2.84784 -2.95198e-19 0)
(2.84469 -2.92856e-19 0)
(2.84153 -2.90534e-19 0)
(2.83836 -2.88231e-19 0)
(2.83518 -2.85948e-19 0)
(2.83199 -2.83685e-19 0)
(2.82879 -2.81441e-19 0)
(2.82557 -2.79216e-19 0)
(2.82235 -2.77011e-19 0)
(2.81912 -2.74824e-19 0)
(2.81588 -2.72656e-19 0)
(2.81263 -2.70507e-19 0)
(2.80937 -2.68376e-19 0)
(2.8061 -2.66263e-19 0)
(2.80282 -2.64168e-19 0)
(2.79953 -2.62092e-19 0)
(2.79623 -2.60033e-19 0)
(2.79292 -2.57993e-19 0)
(2.7896 -2.55969e-19 0)
(2.78626 -2.53963e-19 0)
(2.78292 -2.51975e-19 0)
(2.77957 -2.50003e-19 0)
(2.7762 -2.48049e-19 0)
(2.77283 -2.46111e-19 0)
(2.76944 -2.4419e-19 0)
(2.76604 -2.42286e-19 0)
(2.76263 -2.40398e-19 0)
(2.75921 -2.38527e-19 0)
(2.75578 -2.36672e-19 0)
(2.75234 -2.34832e-19 0)
(2.74889 -2.33009e-19 0)
(2.74542 -2.31202e-19 0)
(2.74194 -2.2941e-19 0)
(2.73846 -2.27633e-19 0)
(2.73496 -2.25872e-19 0)
(2.73144 -2.24127e-19 0)
(2.72792 -2.22396e-19 0)
(2.72438 -2.20681e-19 0)
(2.72083 -2.1898e-19 0)
(2.71727 -2.17294e-19 0)
(2.7137 -2.15623e-19 0)
(2.71011 -2.13967e-19 0)
(2.70652 -2.12324e-19 0)
(2.7029 -2.10696e-19 0)
(2.69928 -2.09083e-19 0)
(2.69564 -2.07483e-19 0)
(2.69199 -2.05897e-19 0)
(2.68833 -2.04325e-19 0)
(2.68465 -2.02767e-19 0)
(2.68096 -2.01222e-19 0)
(2.67726 -1.99691e-19 0)
(2.67354 -1.98173e-19 0)
(2.66981 -1.96668e-19 0)
(2.66607 -1.95176e-19 0)
(2.66231 -1.93698e-19 0)
(2.65854 -1.92232e-19 0)
(2.65475 -1.90779e-19 0)
(2.65094 -1.89339e-19 0)
(2.64713 -1.87911e-19 0)
(2.6433 -1.86496e-19 0)
(2.63945 -1.85093e-19 0)
(2.63559 -1.83703e-19 0)
(2.63171 -1.82324e-19 0)
(2.62782 -1.80958e-19 0)
(2.62391 -1.79603e-19 0)
(2.61998 -1.7826e-19 0)
(2.61604 -1.76929e-19 0)
(2.61209 -1.7561e-19 0)
(2.60811 -1.74302e-19 0)
(2.60412 -1.73006e-19 0)
(2.60012 -1.71721e-19 0)
(2.5961 -1.70447e-19 0)
(2.59206 -1.69184e-19 0)
(2.588 -1.67932e-19 0)
(2.58392 -1.66691e-19 0)
(2.57983 -1.65461e-19 0)
(2.57572 -1.64241e-19 0)
(2.57159 -1.63033e-19 0)
(2.56744 -1.61834e-19 0)
(2.56328 -1.60647e-19 0)
(2.55909 -1.59469e-19 0)
(2.55489 -1.58302e-19 0)
(2.55067 -1.57145e-19 0)
(2.54643 -1.55998e-19 0)
(2.54216 -1.54861e-19 0)
(2.53788 -1.53734e-19 0)
(2.53358 -1.52616e-19 0)
(2.52926 -1.51508e-19 0)
(2.52491 -1.5041e-19 0)
(2.52055 -1.49321e-19 0)
(2.51616 -1.48242e-19 0)
(2.51176 -1.47172e-19 0)
(2.50733 -1.46112e-19 0)
(2.50288 -1.4506e-19 0)
(2.4984 -1.44018e-19 0)
(2.49391 -1.42984e-19 0)
(2.48939 -1.41959e-19 0)
(2.48484 -1.40944e-19 0)
(2.48028 -1.39936e-19 0)
(2.47568 -1.38938e-19 0)
(2.47107 -1.37948e-19 0)
(2.46643 -1.36966e-19 0)
(2.46176 -1.35993e-19 0)
(2.45707 -1.35028e-19 0)
(2.45236 -1.34072e-19 0)
(2.44761 -1.33123e-19 0)
(2.44284 -1.32183e-19 0)
(2.43805 -1.3125e-19 0)
(2.43322 -1.30325e-19 0)
(2.42837 -1.29409e-19 0)
(2.42349 -1.28499e-19 0)
(2.41858 -1.27598e-19 0)
(2.41365 -1.26704e-19 0)
(2.40868 -1.25817e-19 0)
(2.40368 -1.24938e-19 0)
(2.39866 -1.24066e-19 0)
(2.3936 -1.23201e-19 0)
(2.38851 -1.22344e-19 0)
(2.38339 -1.21493e-19 0)
(2.37823 -1.20649e-19 0)
(2.37304 -1.19813e-19 0)
(2.36782 -1.18983e-19 0)
(2.36257 -1.1816e-19 0)
(2.35728 -1.17343e-19 0)
(2.35195 -1.16533e-19 0)
(2.34659 -1.15729e-19 0)
(2.3412 -1.14932e-19 0)
(2.33576 -1.14142e-19 0)
(2.33029 -1.13357e-19 0)
(2.32478 -1.12579e-19 0)
(2.31923 -1.11806e-19 0)
(2.31364 -1.1104e-19 0)
(2.30801 -1.10279e-19 0)
(2.30234 -1.09525e-19 0)
(2.29663 -1.08776e-19 0)
(2.29087 -1.08033e-19 0)
(2.28508 -1.07295e-19 0)
(2.27923 -1.06563e-19 0)
(2.27334 -1.05836e-19 0)
(2.26741 -1.05115e-19 0)
(2.26143 -1.04399e-19 0)
(2.2554 -1.03688e-19 0)
(2.24932 -1.02982e-19 0)
(2.2432 -1.02281e-19 0)
(2.23702 -1.01585e-19 0)
(2.23079 -1.00894e-19 0)
(2.22451 -1.00207e-19 0)
(2.21817 -9.95252e-20 0)
(2.21178 -9.88478e-20 0)
(2.20533 -9.8175e-20 0)
(2.19883 -9.75065e-20 0)
(2.19226 -9.68423e-20 0)
(2.18564 -9.61823e-20 0)
(2.17896 -9.55263e-20 0)
(2.17221 -9.48744e-20 0)
(2.1654 -9.42263e-20 0)
(2.15853 -9.3582e-20 0)
(2.15158 -9.29415e-20 0)
(2.14457 -9.23045e-20 0)
(2.13749 -9.1671e-20 0)
(2.13034 -9.10409e-20 0)
(2.12312 -9.04141e-20 0)
(2.11582 -8.97905e-20 0)
(2.10844 -8.91699e-20 0)
(2.10099 -8.85523e-20 0)
(2.09346 -8.79375e-20 0)
(2.08584 -8.73255e-20 0)
(2.07814 -8.6716e-20 0)
(2.07035 -8.61091e-20 0)
(2.06247 -8.55045e-20 0)
(2.0545 -8.49021e-20 0)
(2.04644 -8.43019e-20 0)
(2.03828 -8.37036e-20 0)
(2.03002 -8.31071e-20 0)
(2.02166 -8.25124e-20 0)
(2.0132 -8.19191e-20 0)
(2.00462 -8.13273e-20 0)
(1.99594 -8.07367e-20 0)
(1.98714 -8.01472e-20 0)
(1.97823 -7.95587e-20 0)
(1.96919 -7.89708e-20 0)
(1.96003 -7.83836e-20 0)
(1.95074 -7.77968e-20 0)
(1.94132 -7.72101e-20 0)
(1.93176 -7.66235e-20 0)
(1.92206 -7.60367e-20 0)
(1.91222 -7.54495e-20 0)
(1.90222 -7.48617e-20 0)
(1.89207 -7.42731e-20 0)
(1.88175 -7.36833e-20 0)
(1.87127 -7.30923e-20 0)
(1.86061 -7.24996e-20 0)
(1.84977 -7.19051e-20 0)
(1.83874 -7.13085e-20 0)
(1.82752 -7.07094e-20 0)
(1.8161 -7.01075e-20 0)
(1.80447 -6.95026e-20 0)
(1.79262 -6.88942e-20 0)
(1.78054 -6.8282e-20 0)
(1.76822 -6.76655e-20 0)
(1.75566 -6.70445e-20 0)
(1.74283 -6.64183e-20 0)
(1.72973 -6.57867e-20 0)
(1.71635 -6.5149e-20 0)
(1.70267 -6.45047e-20 0)
(1.68868 -6.38532e-20 0)
(1.67436 -6.3194e-20 0)
(1.65969 -6.25264e-20 0)
(1.64466 -6.18496e-20 0)
(1.62924 -6.11629e-20 0)
(1.61341 -6.04654e-20 0)
(1.59716 -5.97563e-20 0)
(1.58044 -5.90345e-20 0)
(1.56324 -5.8299e-20 0)
(1.54552 -5.75486e-20 0)
(1.52725 -5.6782e-20 0)
(1.50839 -5.59977e-20 0)
(1.48889 -5.51941e-20 0)
(1.46872 -5.43696e-20 0)
(1.4478 -5.3522e-20 0)
(1.42609 -5.26492e-20 0)
(1.40352 -5.17486e-20 0)
(1.38 -5.08174e-20 0)
(1.35545 -4.98524e-20 0)
(1.32977 -4.88497e-20 0)
(1.30283 -4.7805e-20 0)
(1.2745 -4.67132e-20 0)
(1.24461 -4.55683e-20 0)
(1.21296 -4.43631e-20 0)
(1.17932 -4.30889e-20 0)
(1.1434 -4.17352e-20 0)
(1.10483 -4.02889e-20 0)
(1.06315 -3.87333e-20 0)
(1.01778 -3.70471e-20 0)
(0.967944 -3.52022e-20 0)
(0.912578 -3.31604e-20 0)
(0.85021 -3.08684e-20 0)
(0.778697 -2.82486e-20 0)
(0.694801 -2.51843e-20 0)
(0.593481 -2.14936e-20 0)
(0.467118 -1.69021e-20 0)
(0.307243 -1.11062e-20 0)
(0.114949 -4.14987e-21 0)
)
;

boundaryField
{
    top_wall
    {
        type            noSlip;
    }
    inlet
    {
        type            cyclic;
    }
    bot_wall
    {
        type            noSlip;
    }
    outlet
    {
        type            cyclic;
    }
    frontAndBack
    {
        type            empty;
    }
}


// ************************************************************************* //
