/*--------------------------------*- C++ -*----------------------------------*\
| =========                 |                                                 |
| \\      /  F ield         | OpenFOAM: The Open Source CFD Toolbox           |
|  \\    /   O peration     | Version:  2406                                  |
|   \\  /    A nd           | Website:  www.openfoam.com                      |
|    \\/     M anipulation  |                                                 |
\*---------------------------------------------------------------------------*/
FoamFile
{
    version     2.0;
    format      ascii;
    arch        "LSB;label=32;scalar=64";
    class       volScalarField;
    location    "20.585";
    object      epsilon;
}
// * * * * * * * * * * * * * * * * * * * * * * * * * * * * * * * * * * * * * //

dimensions      [0 2 -3 0 0 0 0];

internalField   nonuniform List<scalar> 
1000
(
40.5037
19.0533
12.8288
10.0865
8.46964
7.36449
6.54541
5.90701
5.39194
4.96572
4.60607
4.29783
4.03025
3.79548
3.58761
3.40211
3.23545
3.0848
2.94789
2.82288
2.70824
2.6027
2.50518
2.4148
2.33077
2.25243
2.17922
2.11064
2.04624
1.98567
1.92857
1.87465
1.82366
1.77535
1.72952
1.68597
1.64455
1.60509
1.56746
1.53153
1.49719
1.46433
1.43287
1.4027
1.37376
1.34597
1.31925
1.29356
1.26883
1.24501
1.22205
1.1999
1.17852
1.15787
1.13792
1.11863
1.09996
1.08189
1.06439
1.04744
1.031
1.01505
0.999579
0.984559
0.96997
0.955796
0.942018
0.92862
0.915587
0.902904
0.890557
0.878534
0.866821
0.855406
0.84428
0.833429
0.822846
0.81252
0.802441
0.792601
0.782992
0.773605
0.764434
0.75547
0.746707
0.738138
0.729757
0.721557
0.713534
0.70568
0.697992
0.690463
0.683089
0.675865
0.668787
0.66185
0.65505
0.648383
0.641845
0.635433
0.629142
0.62297
0.616913
0.610968
0.605132
0.599401
0.593773
0.588246
0.582815
0.57748
0.572237
0.567085
0.562019
0.55704
0.552143
0.547328
0.542591
0.537932
0.533348
0.528838
0.524399
0.52003
0.515729
0.511494
0.507325
0.503219
0.499175
0.495191
0.491267
0.4874
0.48359
0.479835
0.476133
0.472485
0.468888
0.465341
0.461844
0.458395
0.454993
0.451637
0.448327
0.44506
0.441837
0.438656
0.435516
0.432418
0.429358
0.426338
0.423356
0.420411
0.417503
0.41463
0.411793
0.40899
0.40622
0.403484
0.40078
0.398108
0.395467
0.392856
0.390275
0.387724
0.385201
0.382707
0.38024
0.3778
0.375387
0.373
0.370639
0.368303
0.365991
0.363704
0.361441
0.3592
0.356983
0.354788
0.352615
0.350464
0.348334
0.346225
0.344137
0.342069
0.34002
0.337991
0.335981
0.333989
0.332017
0.330062
0.328125
0.326205
0.324303
0.322417
0.320548
0.318695
0.316858
0.315037
0.313232
0.311441
0.309666
0.307905
0.306158
0.304426
0.302708
0.301003
0.299312
0.297634
0.295969
0.294317
0.292678
0.291051
0.289436
0.287833
0.286242
0.284662
0.283094
0.281537
0.279992
0.278457
0.276932
0.275419
0.273915
0.272422
0.270939
0.269466
0.268002
0.266548
0.265104
0.263668
0.262242
0.260825
0.259416
0.258017
0.256626
0.255243
0.253869
0.252502
0.251144
0.249794
0.248452
0.247117
0.24579
0.24447
0.243158
0.241853
0.240555
0.239264
0.23798
0.236703
0.235433
0.23417
0.232913
0.231662
0.230418
0.22918
0.227948
0.226723
0.225503
0.224289
0.223082
0.22188
0.220684
0.219493
0.218308
0.217128
0.215954
0.214786
0.213622
0.212464
0.211311
0.210163
0.20902
0.207882
0.206749
0.205621
0.204498
0.203379
0.202265
0.201156
0.200051
0.198951
0.197856
0.196765
0.195678
0.194596
0.193518
0.192444
0.191374
0.190309
0.189248
0.188191
0.187138
0.186089
0.185044
0.184003
0.182967
0.181934
0.180905
0.179879
0.178858
0.177841
0.176827
0.175817
0.174811
0.173808
0.172809
0.171814
0.170823
0.169835
0.168851
0.16787
0.166893
0.16592
0.16495
0.163984
0.163021
0.162062
0.161106
0.160154
0.159206
0.15826
0.157319
0.156381
0.155446
0.154515
0.153587
0.152663
0.151742
0.150825
0.149911
0.149
0.148094
0.14719
0.14629
0.145394
0.144501
0.143611
0.142725
0.141843
0.140964
0.140088
0.139216
0.138348
0.137483
0.136622
0.135764
0.13491
0.134059
0.133212
0.132369
0.131529
0.130693
0.129861
0.129032
0.128207
0.127386
0.126568
0.125754
0.124944
0.124138
0.123336
0.122537
0.121743
0.120952
0.120165
0.119382
0.118603
0.117828
0.117056
0.116289
0.115526
0.114767
0.114012
0.113262
0.112515
0.111773
0.111034
0.1103
0.109571
0.108845
0.108124
0.107407
0.106695
0.105987
0.105283
0.104584
0.103889
0.103199
0.102514
0.101833
0.101156
0.100485
0.0998174
0.0991551
0.0984974
0.0978446
0.0971965
0.0965533
0.095915
0.0952815
0.094653
0.0940294
0.0934108
0.0927973
0.0921888
0.0915854
0.0909871
0.0903939
0.089806
0.0892232
0.0886458
0.0880735
0.0875066
0.0869451
0.0863889
0.0858381
0.0852927
0.0847528
0.0842184
0.0836895
0.0831662
0.0826484
0.0821363
0.0816298
0.0811289
0.0806338
0.0801444
0.0796607
0.0791828
0.0787107
0.0782445
0.0777841
0.0773296
0.076881
0.0764383
0.0760016
0.0755709
0.0751462
0.0747275
0.0743149
0.0739083
0.0735079
0.0731136
0.0727254
0.0723434
0.0719676
0.071598
0.0712347
0.0708776
0.0705268
0.0701822
0.069844
0.0695121
0.0691866
0.0688675
0.0685547
0.0682483
0.0679484
0.067655
0.0673679
0.0670874
0.0668134
0.0665459
0.0662849
0.0660305
0.0657827
0.0655415
0.0653069
0.0650789
0.0648575
0.0646429
0.0644349
0.0642336
0.064039
0.0638512
0.0636701
0.0634958
0.0633282
0.0631675
0.0630136
0.0628666
0.0627264
0.0625931
0.0624667
0.0623472
0.0622346
0.062129
0.0620303
0.0619386
0.0618539
0.0617762
0.0617055
0.0616419
0.0615852
0.0615357
0.0614932
0.0614577
0.0614294
0.0614081
0.0613939
0.0613868
0.0613868
0.0613939
0.0614081
0.0614294
0.0614577
0.0614932
0.0615357
0.0615852
0.0616419
0.0617055
0.0617762
0.0618539
0.0619386
0.0620303
0.062129
0.0622346
0.0623472
0.0624667
0.0625931
0.0627264
0.0628666
0.0630136
0.0631675
0.0633282
0.0634958
0.0636701
0.0638512
0.064039
0.0642336
0.0644349
0.0646429
0.0648575
0.0650789
0.0653069
0.0655415
0.0657827
0.0660305
0.0662849
0.0665459
0.0668134
0.0670874
0.0673679
0.0676549
0.0679484
0.0682483
0.0685547
0.0688674
0.0691866
0.0695121
0.069844
0.0701822
0.0705268
0.0708776
0.0712347
0.071598
0.0719676
0.0723434
0.0727254
0.0731136
0.0735079
0.0739083
0.0743149
0.0747275
0.0751462
0.0755709
0.0760016
0.0764383
0.0768809
0.0773295
0.0777841
0.0782444
0.0787107
0.0791828
0.0796607
0.0801443
0.0806338
0.0811289
0.0816298
0.0821363
0.0826484
0.0831662
0.0836895
0.0842184
0.0847528
0.0852927
0.0858381
0.0863889
0.0869451
0.0875066
0.0880735
0.0886458
0.0892232
0.089806
0.0903939
0.0909871
0.0915854
0.0921888
0.0927973
0.0934108
0.0940294
0.094653
0.0952815
0.095915
0.0965533
0.0971966
0.0978446
0.0984975
0.0991551
0.0998175
0.100485
0.101156
0.101833
0.102514
0.103199
0.103889
0.104584
0.105283
0.105987
0.106695
0.107407
0.108124
0.108845
0.109571
0.1103
0.111034
0.111773
0.112515
0.113262
0.114013
0.114767
0.115526
0.116289
0.117057
0.117828
0.118603
0.119382
0.120165
0.120952
0.121743
0.122537
0.123336
0.124138
0.124945
0.125755
0.126568
0.127386
0.128207
0.129032
0.129861
0.130693
0.131529
0.132369
0.133212
0.134059
0.13491
0.135764
0.136622
0.137483
0.138348
0.139216
0.140088
0.140964
0.141843
0.142725
0.143611
0.144501
0.145394
0.14629
0.14719
0.148094
0.149001
0.149911
0.150825
0.151742
0.152663
0.153587
0.154515
0.155446
0.156381
0.157319
0.158261
0.159206
0.160154
0.161107
0.162062
0.163021
0.163984
0.16495
0.16592
0.166894
0.16787
0.168851
0.169835
0.170823
0.171814
0.17281
0.173808
0.174811
0.175817
0.176827
0.177841
0.178858
0.17988
0.180905
0.181934
0.182967
0.184004
0.185045
0.186089
0.187138
0.188191
0.189248
0.190309
0.191375
0.192444
0.193518
0.194596
0.195678
0.196765
0.197856
0.198952
0.200052
0.201156
0.202265
0.203379
0.204498
0.205621
0.206749
0.207882
0.20902
0.210163
0.211311
0.212464
0.213622
0.214786
0.215955
0.217129
0.218308
0.219493
0.220684
0.22188
0.223082
0.22429
0.225503
0.226723
0.227949
0.22918
0.230418
0.231662
0.232913
0.23417
0.235434
0.236704
0.237981
0.239265
0.240555
0.241853
0.243158
0.244471
0.24579
0.247117
0.248452
0.249794
0.251145
0.252503
0.253869
0.255243
0.256626
0.258017
0.259417
0.260825
0.262242
0.263669
0.265104
0.266549
0.268003
0.269466
0.270939
0.272423
0.273916
0.275419
0.276933
0.278457
0.279992
0.281538
0.283095
0.284663
0.286242
0.287833
0.289436
0.291051
0.292678
0.294317
0.295969
0.297634
0.299312
0.301003
0.302708
0.304426
0.306159
0.307905
0.309666
0.311441
0.313232
0.315038
0.316859
0.318695
0.320548
0.322417
0.324303
0.326205
0.328125
0.330062
0.332017
0.33399
0.335981
0.337991
0.34002
0.342069
0.344137
0.346226
0.348335
0.350465
0.352616
0.354788
0.356983
0.359201
0.361441
0.363704
0.365992
0.368303
0.370639
0.373001
0.375388
0.377801
0.38024
0.382707
0.385202
0.387724
0.390276
0.392856
0.395467
0.398108
0.40078
0.403484
0.406221
0.40899
0.411793
0.41463
0.417503
0.420411
0.423356
0.426338
0.429359
0.432418
0.435517
0.438656
0.441837
0.44506
0.448327
0.451637
0.454993
0.458395
0.461844
0.465342
0.468888
0.472485
0.476134
0.479835
0.48359
0.4874
0.491267
0.495191
0.499175
0.503219
0.507325
0.511494
0.515729
0.52003
0.524399
0.528838
0.533348
0.537932
0.542592
0.547328
0.552143
0.55704
0.56202
0.567085
0.572238
0.57748
0.582816
0.588246
0.593773
0.599401
0.605132
0.610968
0.616913
0.62297
0.629143
0.635433
0.641845
0.648383
0.65505
0.66185
0.668787
0.675865
0.683089
0.690463
0.697992
0.70568
0.713534
0.721557
0.729757
0.738138
0.746707
0.75547
0.764434
0.773605
0.782992
0.792601
0.802441
0.81252
0.822846
0.833429
0.844279
0.855406
0.866821
0.878534
0.890557
0.902904
0.915587
0.92862
0.942018
0.955795
0.96997
0.984558
0.999579
1.01505
1.031
1.04744
1.06439
1.08189
1.09996
1.11863
1.13792
1.15787
1.17852
1.1999
1.22205
1.24501
1.26883
1.29356
1.31925
1.34597
1.37376
1.4027
1.43286
1.46433
1.49719
1.53153
1.56746
1.60509
1.64455
1.68597
1.72952
1.77535
1.82366
1.87465
1.92857
1.98567
2.04624
2.11063
2.17922
2.25243
2.33077
2.4148
2.50518
2.6027
2.70824
2.82288
2.94789
3.0848
3.23545
3.40211
3.58761
3.79548
4.03025
4.29783
4.60607
4.96572
5.39194
5.90701
6.54541
7.36449
8.46964
10.0865
12.8288
19.0533
40.5037
)
;

boundaryField
{
    top_wall
    {
        type            epsilonWallFunction;
        blending        stepwise;
        value           uniform 40.5037;
    }
    inlet
    {
        type            cyclic;
    }
    bot_wall
    {
        type            epsilonWallFunction;
        blending        stepwise;
        value           uniform 40.5037;
    }
    outlet
    {
        type            cyclic;
    }
    frontAndBack
    {
        type            empty;
    }
}


// ************************************************************************* //
