/*--------------------------------*- C++ -*----------------------------------*\
| =========                 |                                                 |
| \\      /  F ield         | OpenFOAM: The Open Source CFD Toolbox           |
|  \\    /   O peration     | Version:  2406                                  |
|   \\  /    A nd           | Website:  www.openfoam.com                      |
|    \\/     M anipulation  |                                                 |
\*---------------------------------------------------------------------------*/
FoamFile
{
    version     2.0;
    format      ascii;
    arch        "LSB;label=32;scalar=64";
    class       volScalarField;
    location    "20.585";
    object      k;
}
// * * * * * * * * * * * * * * * * * * * * * * * * * * * * * * * * * * * * * //

dimensions      [0 2 -2 0 0 0 0];

internalField   nonuniform List<scalar> 
1000
(
0.136688
0.141569
0.170813
0.194652
0.211878
0.224519
0.234084
0.241524
0.247444
0.252241
0.256185
0.259464
0.262218
0.264547
0.266529
0.268223
0.269675
0.270924
0.271998
0.272922
0.273717
0.274398
0.27498
0.275475
0.275892
0.276241
0.276528
0.276761
0.276944
0.277082
0.27718
0.277242
0.27727
0.277268
0.277239
0.277184
0.277106
0.277007
0.276888
0.276751
0.276598
0.276429
0.276246
0.27605
0.275841
0.275622
0.275391
0.275151
0.274901
0.274644
0.274378
0.274104
0.273824
0.273537
0.273244
0.272946
0.272642
0.272333
0.272019
0.271701
0.271378
0.271052
0.270722
0.270389
0.270052
0.269712
0.269369
0.269024
0.268676
0.268326
0.267973
0.267618
0.267261
0.266902
0.266541
0.266178
0.265814
0.265448
0.265081
0.264712
0.264342
0.263971
0.263598
0.263224
0.262849
0.262473
0.262096
0.261718
0.26134
0.26096
0.260579
0.260198
0.259816
0.259433
0.259049
0.258664
0.258279
0.257894
0.257507
0.25712
0.256733
0.256345
0.255956
0.255567
0.255177
0.254787
0.254396
0.254005
0.253613
0.253221
0.252828
0.252435
0.252041
0.251647
0.251253
0.250858
0.250462
0.250066
0.24967
0.249273
0.248876
0.248479
0.248081
0.247682
0.247283
0.246884
0.246484
0.246084
0.245683
0.245282
0.244881
0.244479
0.244076
0.243673
0.24327
0.242866
0.242462
0.242057
0.241652
0.241246
0.24084
0.240433
0.240026
0.239619
0.239211
0.238802
0.238393
0.237983
0.237573
0.237162
0.236751
0.236339
0.235927
0.235514
0.2351
0.234686
0.234271
0.233856
0.23344
0.233024
0.232607
0.232189
0.231771
0.231352
0.230933
0.230513
0.230092
0.22967
0.229248
0.228826
0.228402
0.227978
0.227553
0.227128
0.226702
0.226275
0.225848
0.225419
0.22499
0.224561
0.22413
0.223699
0.223267
0.222834
0.222401
0.221967
0.221532
0.221096
0.22066
0.220222
0.219784
0.219345
0.218906
0.218465
0.218024
0.217582
0.217139
0.216695
0.21625
0.215805
0.215358
0.214911
0.214463
0.214014
0.213564
0.213113
0.212662
0.212209
0.211756
0.211302
0.210847
0.210391
0.209934
0.209476
0.209017
0.208558
0.208097
0.207636
0.207173
0.20671
0.206246
0.20578
0.205314
0.204847
0.204379
0.20391
0.20344
0.202969
0.202497
0.202024
0.201551
0.201076
0.2006
0.200124
0.199646
0.199167
0.198688
0.198207
0.197726
0.197243
0.19676
0.196275
0.19579
0.195304
0.194816
0.194328
0.193839
0.193349
0.192857
0.192365
0.191872
0.191378
0.190883
0.190387
0.18989
0.189392
0.188893
0.188393
0.187892
0.18739
0.186888
0.186384
0.185879
0.185374
0.184867
0.18436
0.183851
0.183342
0.182832
0.182321
0.181809
0.181296
0.180782
0.180267
0.179751
0.179235
0.178717
0.178199
0.17768
0.17716
0.176639
0.176117
0.175594
0.175071
0.174547
0.174022
0.173496
0.172969
0.172442
0.171913
0.171384
0.170855
0.170324
0.169793
0.169261
0.168728
0.168194
0.16766
0.167125
0.16659
0.166053
0.165516
0.164979
0.164441
0.163902
0.163362
0.162822
0.162282
0.16174
0.161199
0.160656
0.160113
0.15957
0.159026
0.158482
0.157937
0.157392
0.156846
0.1563
0.155753
0.155206
0.154659
0.154112
0.153564
0.153015
0.152467
0.151918
0.151369
0.150819
0.15027
0.14972
0.14917
0.14862
0.14807
0.147519
0.146969
0.146419
0.145868
0.145317
0.144767
0.144216
0.143666
0.143115
0.142565
0.142015
0.141465
0.140915
0.140365
0.139816
0.139266
0.138717
0.138169
0.137621
0.137073
0.136525
0.135978
0.135431
0.134885
0.134339
0.133794
0.13325
0.132706
0.132162
0.13162
0.131078
0.130537
0.129996
0.129457
0.128918
0.12838
0.127843
0.127307
0.126772
0.126237
0.125704
0.125172
0.124642
0.124112
0.123583
0.123056
0.12253
0.122006
0.121482
0.12096
0.12044
0.119921
0.119404
0.118888
0.118374
0.117861
0.11735
0.116841
0.116333
0.115828
0.115324
0.114822
0.114322
0.113825
0.113329
0.112835
0.112344
0.111854
0.111367
0.110883
0.1104
0.10992
0.109443
0.108968
0.108495
0.108025
0.107558
0.107093
0.106631
0.106173
0.105716
0.105263
0.104813
0.104366
0.103922
0.103481
0.103043
0.102608
0.102177
0.101749
0.101325
0.100904
0.100487
0.100073
0.0996626
0.0992562
0.0988536
0.0984548
0.0980599
0.0976689
0.097282
0.0968992
0.0965205
0.096146
0.0957757
0.0954098
0.0950483
0.0946913
0.0943387
0.0939907
0.0936474
0.0933088
0.0929749
0.0926459
0.0923217
0.0920025
0.0916883
0.0913791
0.0910752
0.0907764
0.0904828
0.0901946
0.0899117
0.0896343
0.0893624
0.0890961
0.0888353
0.0885803
0.0883309
0.0880874
0.0878497
0.0876179
0.087392
0.0871722
0.0869584
0.0867507
0.0865492
0.0863538
0.0861648
0.0859821
0.0858057
0.0856357
0.0854721
0.085315
0.0851645
0.0850205
0.0848831
0.0847524
0.0846283
0.084511
0.0844003
0.0842965
0.0841994
0.0841091
0.0840257
0.0839492
0.0838796
0.0838168
0.083761
0.0837122
0.0836703
0.0836353
0.0836073
0.0835864
0.0835724
0.0835654
0.0835654
0.0835724
0.0835864
0.0836073
0.0836353
0.0836703
0.0837122
0.083761
0.0838168
0.0838796
0.0839492
0.0840257
0.0841091
0.0841994
0.0842965
0.0844003
0.084511
0.0846283
0.0847524
0.0848831
0.0850205
0.0851645
0.085315
0.0854721
0.0856357
0.0858057
0.085982
0.0861648
0.0863538
0.0865491
0.0867507
0.0869583
0.0871721
0.087392
0.0876178
0.0878496
0.0880873
0.0883309
0.0885802
0.0888353
0.089096
0.0893624
0.0896343
0.0899117
0.0901946
0.0904828
0.0907763
0.0910751
0.0913791
0.0916882
0.0920024
0.0923217
0.0926458
0.0929749
0.0933087
0.0936474
0.0939907
0.0943387
0.0946912
0.0950483
0.0954098
0.0957757
0.0961459
0.0965204
0.0968991
0.097282
0.0976689
0.0980598
0.0984547
0.0988535
0.0992562
0.0996626
0.100073
0.100487
0.100904
0.101325
0.101749
0.102177
0.102608
0.103043
0.103481
0.103922
0.104366
0.104813
0.105263
0.105716
0.106172
0.106631
0.107093
0.107558
0.108025
0.108495
0.108968
0.109443
0.10992
0.1104
0.110883
0.111367
0.111854
0.112344
0.112835
0.113329
0.113825
0.114322
0.114822
0.115324
0.115828
0.116333
0.116841
0.11735
0.117861
0.118373
0.118888
0.119404
0.119921
0.12044
0.12096
0.121482
0.122006
0.12253
0.123056
0.123583
0.124112
0.124642
0.125172
0.125704
0.126237
0.126772
0.127307
0.127843
0.12838
0.128918
0.129457
0.129996
0.130537
0.131078
0.13162
0.132162
0.132706
0.13325
0.133794
0.134339
0.134885
0.135431
0.135978
0.136525
0.137073
0.137621
0.138169
0.138717
0.139266
0.139816
0.140365
0.140915
0.141465
0.142015
0.142565
0.143115
0.143666
0.144216
0.144767
0.145317
0.145868
0.146419
0.146969
0.147519
0.14807
0.14862
0.14917
0.14972
0.15027
0.150819
0.151369
0.151918
0.152467
0.153015
0.153564
0.154112
0.154659
0.155206
0.155753
0.1563
0.156846
0.157392
0.157937
0.158482
0.159026
0.15957
0.160113
0.160656
0.161199
0.16174
0.162282
0.162822
0.163362
0.163902
0.164441
0.164979
0.165516
0.166053
0.16659
0.167125
0.16766
0.168194
0.168728
0.169261
0.169793
0.170324
0.170855
0.171384
0.171913
0.172442
0.172969
0.173496
0.174022
0.174547
0.175071
0.175594
0.176117
0.176639
0.17716
0.17768
0.178199
0.178717
0.179235
0.179751
0.180267
0.180782
0.181296
0.181809
0.182321
0.182832
0.183342
0.183851
0.18436
0.184867
0.185374
0.185879
0.186384
0.186888
0.18739
0.187892
0.188393
0.188893
0.189392
0.18989
0.190387
0.190883
0.191378
0.191872
0.192365
0.192857
0.193349
0.193839
0.194328
0.194816
0.195304
0.19579
0.196276
0.19676
0.197243
0.197726
0.198207
0.198688
0.199167
0.199646
0.200124
0.2006
0.201076
0.201551
0.202025
0.202497
0.202969
0.20344
0.20391
0.204379
0.204847
0.205314
0.20578
0.206246
0.20671
0.207173
0.207636
0.208097
0.208558
0.209017
0.209476
0.209934
0.210391
0.210847
0.211302
0.211756
0.21221
0.212662
0.213114
0.213564
0.214014
0.214463
0.214911
0.215358
0.215805
0.21625
0.216695
0.217139
0.217582
0.218024
0.218465
0.218906
0.219345
0.219784
0.220222
0.22066
0.221096
0.221532
0.221967
0.222401
0.222834
0.223267
0.223699
0.22413
0.224561
0.22499
0.225419
0.225848
0.226275
0.226702
0.227128
0.227554
0.227978
0.228402
0.228826
0.229248
0.229671
0.230092
0.230513
0.230933
0.231352
0.231771
0.232189
0.232607
0.233024
0.23344
0.233856
0.234271
0.234686
0.2351
0.235514
0.235927
0.236339
0.236751
0.237162
0.237573
0.237983
0.238393
0.238802
0.239211
0.239619
0.240026
0.240434
0.24084
0.241246
0.241652
0.242057
0.242462
0.242866
0.24327
0.243673
0.244076
0.244479
0.244881
0.245282
0.245683
0.246084
0.246484
0.246884
0.247283
0.247682
0.248081
0.248479
0.248876
0.249273
0.24967
0.250066
0.250462
0.250858
0.251253
0.251647
0.252041
0.252435
0.252828
0.253221
0.253613
0.254005
0.254396
0.254787
0.255177
0.255567
0.255956
0.256345
0.256733
0.25712
0.257507
0.257894
0.258279
0.258665
0.259049
0.259433
0.259816
0.260198
0.260579
0.26096
0.26134
0.261719
0.262096
0.262473
0.262849
0.263224
0.263598
0.263971
0.264342
0.264712
0.265081
0.265448
0.265814
0.266178
0.266541
0.266902
0.267261
0.267618
0.267973
0.268326
0.268676
0.269024
0.26937
0.269712
0.270052
0.270389
0.270722
0.271052
0.271378
0.271701
0.272019
0.272333
0.272642
0.272946
0.273244
0.273537
0.273824
0.274104
0.274378
0.274644
0.274901
0.275151
0.275391
0.275622
0.275841
0.27605
0.276246
0.276429
0.276598
0.276751
0.276888
0.277007
0.277106
0.277184
0.277239
0.277268
0.27727
0.277242
0.27718
0.277082
0.276944
0.276761
0.276528
0.276241
0.275892
0.275475
0.27498
0.274398
0.273717
0.272922
0.271998
0.270924
0.269675
0.268223
0.266529
0.264547
0.262218
0.259464
0.256185
0.252241
0.247444
0.241524
0.234084
0.224519
0.211878
0.194652
0.170813
0.141569
0.136688
)
;

boundaryField
{
    top_wall
    {
        type            kLowReWallFunction;
        value           uniform 0.00134847;
    }
    inlet
    {
        type            cyclic;
    }
    bot_wall
    {
        type            kLowReWallFunction;
        value           uniform 0.00134847;
    }
    outlet
    {
        type            cyclic;
    }
    frontAndBack
    {
        type            empty;
    }
}


// ************************************************************************* //
