/*--------------------------------*- C++ -*----------------------------------*\
| =========                 |                                                 |
| \\      /  F ield         | OpenFOAM: The Open Source CFD Toolbox           |
|  \\    /   O peration     | Version:  2406                                  |
|   \\  /    A nd           | Website:  www.openfoam.com                      |
|    \\/     M anipulation  |                                                 |
\*---------------------------------------------------------------------------*/
FoamFile
{
    version     2.0;
    format      ascii;
    arch        "LSB;label=32;scalar=64";
    class       volScalarField;
    location    "20.585";
    object      nut;
}
// * * * * * * * * * * * * * * * * * * * * * * * * * * * * * * * * * * * * * //

dimensions      [0 2 -1 0 0 0 0];

internalField   nonuniform List<scalar> 
1000
(
3.89785e-05
8.88837e-05
0.000192182
0.000317418
0.00044788
0.000578388
0.000707395
0.00083447
0.000959548
0.0010827
0.00120401
0.00132362
0.00144162
0.0015581
0.00167317
0.00178689
0.00189935
0.00201059
0.00212068
0.00222968
0.00233761
0.00244453
0.00255047
0.00265546
0.00275954
0.00286274
0.00296507
0.00306657
0.00316725
0.00326714
0.00336625
0.0034646
0.00356221
0.00365909
0.00375526
0.00385073
0.0039455
0.00403961
0.00413304
0.00422582
0.00431796
0.00440945
0.00450032
0.00459057
0.00468021
0.00476924
0.00485767
0.00494551
0.00503277
0.00511944
0.00520554
0.00529107
0.00537604
0.00546044
0.0055443
0.0056276
0.00571036
0.00579257
0.00587425
0.00595539
0.006036
0.00611609
0.00619565
0.00627469
0.00635321
0.00643121
0.0065087
0.00658569
0.00666216
0.00673813
0.00681359
0.00688856
0.00696303
0.007037
0.00711047
0.00718346
0.00725595
0.00732796
0.00739948
0.00747051
0.00754106
0.00761112
0.00768071
0.00774982
0.00781845
0.0078866
0.00795428
0.00802148
0.00808821
0.00815448
0.00822027
0.00828559
0.00835045
0.00841484
0.00847876
0.00854222
0.00860522
0.00866775
0.00872983
0.00879144
0.0088526
0.00891329
0.00897353
0.00903332
0.00909265
0.00915152
0.00920994
0.00926791
0.00932543
0.00938249
0.00943911
0.00949528
0.009551
0.00960627
0.00966109
0.00971547
0.00976941
0.0098229
0.00987594
0.00992855
0.00998071
0.0100324
0.0100837
0.0101346
0.010185
0.0102349
0.0102845
0.0103336
0.0103822
0.0104304
0.0104782
0.0105256
0.0105725
0.010619
0.0106651
0.0107107
0.0107559
0.0108007
0.0108451
0.010889
0.0109325
0.0109756
0.0110182
0.0110605
0.0111023
0.0111437
0.0111847
0.0112252
0.0112653
0.0113051
0.0113444
0.0113833
0.0114217
0.0114598
0.0114974
0.0115347
0.0115715
0.0116079
0.0116439
0.0116795
0.0117147
0.0117495
0.0117839
0.0118178
0.0118514
0.0118846
0.0119174
0.0119497
0.0119817
0.0120133
0.0120444
0.0120752
0.0121056
0.0121356
0.0121652
0.0121944
0.0122232
0.0122517
0.0122797
0.0123074
0.0123346
0.0123615
0.012388
0.0124141
0.0124399
0.0124652
0.0124902
0.0125148
0.012539
0.0125629
0.0125863
0.0126094
0.0126322
0.0126545
0.0126765
0.0126981
0.0127194
0.0127402
0.0127608
0.0127809
0.0128007
0.0128201
0.0128392
0.0128579
0.0128763
0.0128942
0.0129119
0.0129292
0.0129461
0.0129627
0.0129789
0.0129948
0.0130103
0.0130255
0.0130404
0.0130549
0.013069
0.0130829
0.0130963
0.0131095
0.0131223
0.0131347
0.0131469
0.0131587
0.0131702
0.0131813
0.0131921
0.0132026
0.0132127
0.0132226
0.0132321
0.0132413
0.0132501
0.0132587
0.0132669
0.0132748
0.0132824
0.0132897
0.0132966
0.0133033
0.0133096
0.0133157
0.0133214
0.0133268
0.0133319
0.0133367
0.0133413
0.0133455
0.0133494
0.013353
0.0133563
0.0133594
0.0133621
0.0133645
0.0133667
0.0133685
0.0133701
0.0133714
0.0133724
0.0133731
0.0133736
0.0133737
0.0133736
0.0133732
0.0133725
0.0133716
0.0133704
0.0133689
0.0133671
0.0133651
0.0133628
0.0133602
0.0133574
0.0133543
0.0133509
0.0133473
0.0133435
0.0133393
0.0133349
0.0133303
0.0133254
0.0133203
0.0133149
0.0133092
0.0133033
0.0132972
0.0132908
0.0132842
0.0132773
0.0132702
0.0132629
0.0132553
0.0132475
0.0132394
0.0132311
0.0132226
0.0132139
0.0132049
0.0131957
0.0131863
0.0131766
0.0131667
0.0131566
0.0131463
0.0131358
0.013125
0.0131141
0.0131029
0.0130915
0.0130799
0.0130681
0.0130561
0.0130439
0.0130315
0.0130188
0.013006
0.012993
0.0129797
0.0129663
0.0129527
0.0129389
0.0129248
0.0129106
0.0128962
0.0128817
0.0128669
0.0128519
0.0128368
0.0128215
0.012806
0.0127903
0.0127744
0.0127584
0.0127422
0.0127258
0.0127093
0.0126925
0.0126756
0.0126586
0.0126413
0.0126239
0.0126064
0.0125887
0.0125708
0.0125528
0.0125346
0.0125162
0.0124977
0.0124791
0.0124603
0.0124413
0.0124222
0.012403
0.0123836
0.012364
0.0123444
0.0123246
0.0123046
0.0122845
0.0122643
0.0122439
0.0122235
0.0122028
0.0121821
0.0121612
0.0121402
0.0121191
0.0120979
0.0120765
0.0120551
0.0120335
0.0120118
0.0119899
0.011968
0.011946
0.0119239
0.0119016
0.0118793
0.0118568
0.0118343
0.0118116
0.0117889
0.0117661
0.0117432
0.0117202
0.0116971
0.0116739
0.0116506
0.0116273
0.0116039
0.0115804
0.0115568
0.0115332
0.0115095
0.0114858
0.0114619
0.0114381
0.0114141
0.0113901
0.0113661
0.011342
0.0113179
0.0112937
0.0112695
0.0112453
0.011221
0.0111967
0.0111724
0.011148
0.0111237
0.0110993
0.0110749
0.0110505
0.0110261
0.0110017
0.0109774
0.010953
0.0109286
0.0109043
0.01088
0.0108557
0.0108315
0.0108073
0.0107831
0.010759
0.010735
0.010711
0.010687
0.0106632
0.0106394
0.0106158
0.0105922
0.0105687
0.0105453
0.010522
0.0104989
0.0104758
0.0104529
0.0104302
0.0104076
0.0103851
0.0103628
0.0103407
0.0103188
0.010297
0.0102754
0.0102541
0.0102329
0.010212
0.0101913
0.0101708
0.0101506
0.0101306
0.0101109
0.0100914
0.0100722
0.0100533
0.0100347
0.0100164
0.00999845
0.00998078
0.00996344
0.00994643
0.00992977
0.00991346
0.0098975
0.00988192
0.00986671
0.00985188
0.00983744
0.00982339
0.00980975
0.00979652
0.00978371
0.00977132
0.00975936
0.00974784
0.00973675
0.00972611
0.00971593
0.0097062
0.00969693
0.00968812
0.00967979
0.00967192
0.00966454
0.00965763
0.00965121
0.00964527
0.00963981
0.00963485
0.00963038
0.0096264
0.00962292
0.00961993
0.00961744
0.00961545
0.00961395
0.00961295
0.00961245
0.00961245
0.00961295
0.00961395
0.00961545
0.00961744
0.00961993
0.00962292
0.0096264
0.00963038
0.00963485
0.00963981
0.00964527
0.00965121
0.00965763
0.00966454
0.00967192
0.00967979
0.00968812
0.00969693
0.0097062
0.00971593
0.00972611
0.00973675
0.00974783
0.00975936
0.00977132
0.00978371
0.00979652
0.00980975
0.00982339
0.00983743
0.00985187
0.0098667
0.00988191
0.0098975
0.00991345
0.00992976
0.00994643
0.00996343
0.00998078
0.00999844
0.0100164
0.0100347
0.0100533
0.0100722
0.0100914
0.0101109
0.0101306
0.0101506
0.0101708
0.0101913
0.010212
0.0102329
0.0102541
0.0102754
0.010297
0.0103188
0.0103407
0.0103628
0.0103851
0.0104076
0.0104302
0.0104529
0.0104758
0.0104989
0.010522
0.0105453
0.0105687
0.0105922
0.0106157
0.0106394
0.0106632
0.010687
0.010711
0.0107349
0.010759
0.0107831
0.0108073
0.0108315
0.0108557
0.01088
0.0109043
0.0109286
0.010953
0.0109773
0.0110017
0.0110261
0.0110505
0.0110749
0.0110993
0.0111237
0.011148
0.0111724
0.0111967
0.011221
0.0112453
0.0112695
0.0112937
0.0113179
0.011342
0.0113661
0.0113901
0.0114141
0.0114381
0.0114619
0.0114858
0.0115095
0.0115332
0.0115568
0.0115804
0.0116039
0.0116273
0.0116506
0.0116739
0.0116971
0.0117201
0.0117431
0.0117661
0.0117889
0.0118116
0.0118343
0.0118568
0.0118793
0.0119016
0.0119238
0.011946
0.011968
0.0119899
0.0120118
0.0120335
0.012055
0.0120765
0.0120979
0.0121191
0.0121402
0.0121612
0.0121821
0.0122028
0.0122234
0.0122439
0.0122643
0.0122845
0.0123046
0.0123245
0.0123444
0.012364
0.0123836
0.012403
0.0124222
0.0124413
0.0124603
0.0124791
0.0124977
0.0125162
0.0125346
0.0125528
0.0125708
0.0125887
0.0126064
0.0126239
0.0126413
0.0126586
0.0126756
0.0126925
0.0127092
0.0127258
0.0127422
0.0127584
0.0127744
0.0127903
0.012806
0.0128215
0.0128368
0.0128519
0.0128669
0.0128817
0.0128962
0.0129106
0.0129248
0.0129388
0.0129527
0.0129663
0.0129797
0.0129929
0.013006
0.0130188
0.0130314
0.0130439
0.0130561
0.0130681
0.0130799
0.0130915
0.0131029
0.0131141
0.013125
0.0131358
0.0131463
0.0131566
0.0131667
0.0131766
0.0131862
0.0131957
0.0132049
0.0132138
0.0132226
0.0132311
0.0132394
0.0132474
0.0132553
0.0132628
0.0132702
0.0132773
0.0132842
0.0132908
0.0132972
0.0133033
0.0133092
0.0133148
0.0133202
0.0133254
0.0133303
0.0133349
0.0133393
0.0133434
0.0133473
0.0133509
0.0133543
0.0133574
0.0133602
0.0133628
0.0133651
0.0133671
0.0133689
0.0133704
0.0133716
0.0133725
0.0133732
0.0133736
0.0133737
0.0133736
0.0133731
0.0133724
0.0133714
0.0133701
0.0133685
0.0133667
0.0133645
0.0133621
0.0133593
0.0133563
0.013353
0.0133494
0.0133455
0.0133413
0.0133367
0.0133319
0.0133268
0.0133214
0.0133157
0.0133096
0.0133033
0.0132966
0.0132897
0.0132824
0.0132748
0.0132669
0.0132586
0.0132501
0.0132412
0.0132321
0.0132226
0.0132127
0.0132026
0.0131921
0.0131813
0.0131701
0.0131587
0.0131469
0.0131347
0.0131223
0.0131095
0.0130963
0.0130829
0.013069
0.0130549
0.0130404
0.0130255
0.0130103
0.0129948
0.0129789
0.0129627
0.0129461
0.0129292
0.0129119
0.0128942
0.0128762
0.0128579
0.0128392
0.0128201
0.0128007
0.0127809
0.0127607
0.0127402
0.0127193
0.0126981
0.0126765
0.0126545
0.0126321
0.0126094
0.0125863
0.0125629
0.012539
0.0125148
0.0124902
0.0124652
0.0124399
0.0124141
0.012388
0.0123615
0.0123346
0.0123074
0.0122797
0.0122517
0.0122232
0.0121944
0.0121652
0.0121356
0.0121056
0.0120752
0.0120444
0.0120133
0.0119817
0.0119497
0.0119173
0.0118846
0.0118514
0.0118178
0.0117839
0.0117495
0.0117147
0.0116795
0.0116439
0.0116079
0.0115715
0.0115347
0.0114974
0.0114598
0.0114217
0.0113833
0.0113444
0.0113051
0.0112653
0.0112252
0.0111847
0.0111437
0.0111023
0.0110605
0.0110182
0.0109756
0.0109325
0.010889
0.0108451
0.0108007
0.0107559
0.0107107
0.0106651
0.010619
0.0105725
0.0105256
0.0104782
0.0104304
0.0103822
0.0103336
0.0102845
0.0102349
0.010185
0.0101346
0.0100837
0.0100324
0.00998071
0.00992855
0.00987595
0.0098229
0.00976941
0.00971547
0.00966109
0.00960627
0.009551
0.00949528
0.00943911
0.00938249
0.00932543
0.00926791
0.00920994
0.00915152
0.00909265
0.00903332
0.00897353
0.00891329
0.0088526
0.00879144
0.00872983
0.00866775
0.00860522
0.00854222
0.00847876
0.00841484
0.00835045
0.00828559
0.00822027
0.00815448
0.00808822
0.00802148
0.00795428
0.0078866
0.00781845
0.00774982
0.00768071
0.00761112
0.00754106
0.00747051
0.00739948
0.00732796
0.00725595
0.00718346
0.00711048
0.007037
0.00696303
0.00688856
0.0068136
0.00673813
0.00666216
0.00658569
0.0065087
0.00643121
0.00635321
0.00627469
0.00619565
0.00611609
0.00603601
0.00595539
0.00587425
0.00579257
0.00571036
0.0056276
0.0055443
0.00546045
0.00537604
0.00529107
0.00520554
0.00511944
0.00503277
0.00494551
0.00485767
0.00476924
0.00468021
0.00459057
0.00450032
0.00440946
0.00431796
0.00422582
0.00413304
0.00403961
0.0039455
0.00385073
0.00375526
0.00365909
0.00356221
0.0034646
0.00336625
0.00326714
0.00316725
0.00306657
0.00296507
0.00286274
0.00275954
0.00265546
0.00255047
0.00244453
0.00233761
0.00222968
0.00212068
0.00201059
0.00189935
0.00178689
0.00167317
0.0015581
0.00144162
0.00132362
0.00120401
0.0010827
0.000959548
0.00083447
0.000707395
0.000578388
0.00044788
0.000317418
0.000192182
8.88837e-05
3.89785e-05
)
;

boundaryField
{
    top_wall
    {
        type            nutLowReWallFunction;
        value           uniform 0;
    }
    inlet
    {
        type            cyclic;
    }
    bot_wall
    {
        type            nutLowReWallFunction;
        value           uniform 0;
    }
    outlet
    {
        type            cyclic;
    }
    frontAndBack
    {
        type            empty;
    }
}


// ************************************************************************* //
