/*--------------------------------*- C++ -*----------------------------------*\
| =========                 |                                                 |
| \\      /  F ield         | OpenFOAM: The Open Source CFD Toolbox           |
|  \\    /   O peration     | Version:  2406                                  |
|   \\  /    A nd           | Website:  www.openfoam.com                      |
|    \\/     M anipulation  |                                                 |
\*---------------------------------------------------------------------------*/
FoamFile
{
    version     2.0;
    format      ascii;
    arch        "LSB;label=32;scalar=64";
    class       volScalarField;
    location    "20.585";
    object      p;
}
// * * * * * * * * * * * * * * * * * * * * * * * * * * * * * * * * * * * * * //

dimensions      [0 2 -2 0 0 0 0];

internalField   nonuniform List<scalar> 
1000
(
4.70499e-19
2.77876e-18
3.33787e-18
3.21572e-18
3.0018e-18
2.86047e-18
2.76481e-18
2.81999e-18
3.03843e-18
2.48224e-18
1.98483e-18
1.81799e-18
1.45714e-18
1.11792e-18
3.41384e-19
5.06499e-19
3.8996e-19
2.11699e-20
-3.66588e-19
-7.73119e-19
-1.19823e-18
-1.64176e-18
-2.10351e-18
-2.58334e-18
-3.08107e-18
-3.59656e-18
-4.12965e-18
-4.6802e-18
-5.24806e-18
-5.8331e-18
-6.43518e-18
-7.05417e-18
-7.68994e-18
-8.34236e-18
-9.01131e-18
-9.69668e-18
-1.03983e-17
-1.11162e-17
-1.185e-17
-1.25999e-17
-1.33655e-17
-1.41469e-17
-1.49439e-17
-1.57564e-17
-1.65843e-17
-1.74275e-17
-1.82859e-17
-1.91594e-17
-2.00478e-17
-2.09512e-17
-2.18694e-17
-2.28022e-17
-2.37497e-17
-2.47116e-17
-2.5688e-17
-2.66786e-17
-2.76835e-17
-2.87025e-17
-2.97355e-17
-3.07825e-17
-3.18433e-17
-3.29179e-17
-3.40061e-17
-3.5108e-17
-3.62233e-17
-3.7352e-17
-3.8494e-17
-3.96492e-17
-4.08176e-17
-4.1999e-17
-4.31934e-17
-4.44007e-17
-4.56207e-17
-4.68535e-17
-4.80989e-17
-4.93568e-17
-5.06272e-17
-5.191e-17
-5.3205e-17
-5.45122e-17
-5.58316e-17
-5.7163e-17
-5.85063e-17
-5.98616e-17
-6.12286e-17
-6.26073e-17
-6.39976e-17
-6.53995e-17
-6.68129e-17
-6.82376e-17
-6.96737e-17
-7.11209e-17
-7.25794e-17
-7.40488e-17
-7.55293e-17
-7.70207e-17
-7.85229e-17
-8.00358e-17
-8.15594e-17
-8.30936e-17
-8.46383e-17
-8.61934e-17
-8.77589e-17
-8.93346e-17
-9.09206e-17
-9.25166e-17
-9.41228e-17
-9.57388e-17
-9.73648e-17
-9.90005e-17
-1.00646e-16
-1.02301e-16
-1.03966e-16
-1.0564e-16
-1.07324e-16
-1.09017e-16
-1.10719e-16
-1.12431e-16
-1.14151e-16
-1.15881e-16
-1.17619e-16
-1.19367e-16
-1.21123e-16
-1.22888e-16
-1.24662e-16
-1.26444e-16
-1.28235e-16
-1.30034e-16
-1.31842e-16
-1.33658e-16
-1.35482e-16
-1.37314e-16
-1.39155e-16
-1.41003e-16
-1.42859e-16
-1.44723e-16
-1.46595e-16
-1.48475e-16
-1.50362e-16
-1.50994e-16
-1.5036e-16
-1.54815e-16
-1.5801e-16
-1.59935e-16
-1.61866e-16
-1.63805e-16
-1.6575e-16
-1.67703e-16
-1.69663e-16
-1.71629e-16
-1.73602e-16
-1.75582e-16
-1.77568e-16
-1.79561e-16
-1.81561e-16
-1.83567e-16
-1.85579e-16
-1.87597e-16
-1.89622e-16
-1.91653e-16
-1.9369e-16
-1.95733e-16
-1.97782e-16
-1.99836e-16
-2.01897e-16
-2.03963e-16
-2.06034e-16
-2.08112e-16
-2.10195e-16
-2.12283e-16
-2.17168e-16
-2.25564e-16
-2.21356e-16
-2.20652e-16
-2.22767e-16
-2.24886e-16
-2.27011e-16
-2.2914e-16
-2.31274e-16
-2.33413e-16
-2.35557e-16
-2.37705e-16
-2.39858e-16
-2.42016e-16
-2.44177e-16
-2.46344e-16
-2.48514e-16
-2.50689e-16
-2.52868e-16
-2.55051e-16
-2.57238e-16
-2.59429e-16
-2.61624e-16
-2.63823e-16
-2.66025e-16
-2.68232e-16
-2.70442e-16
-2.72655e-16
-2.74873e-16
-2.77093e-16
-2.79317e-16
-2.81545e-16
-2.85263e-16
-2.90475e-16
-2.86747e-16
-2.84506e-16
-2.84506e-16
-2.84506e-16
-2.84506e-16
-2.84506e-16
-2.84506e-16
-2.84506e-16
-2.84506e-16
-2.84506e-16
-2.84506e-16
-2.84506e-16
-2.84506e-16
-2.84506e-16
-2.84506e-16
-2.84506e-16
-2.84506e-16
-2.84506e-16
-2.84506e-16
-2.84506e-16
-2.84506e-16
-2.84506e-16
-2.84506e-16
-2.84506e-16
-2.84506e-16
-2.84506e-16
-2.84506e-16
-2.84506e-16
-2.84506e-16
-2.84506e-16
-2.84506e-16
-2.84506e-16
-2.84506e-16
-2.84506e-16
-2.84506e-16
-2.84506e-16
-2.84506e-16
-2.84506e-16
-2.84506e-16
-2.84506e-16
-2.84506e-16
-2.84506e-16
-2.84506e-16
-2.84506e-16
-2.84506e-16
-2.84506e-16
-2.84506e-16
-2.84506e-16
-2.84506e-16
-2.84506e-16
-2.84506e-16
-2.84506e-16
-2.84506e-16
-2.84506e-16
-2.84506e-16
-2.84506e-16
-2.84506e-16
-2.84506e-16
-2.84506e-16
-2.84506e-16
-2.84506e-16
-2.84506e-16
-2.84506e-16
-2.84506e-16
-2.84506e-16
-2.84506e-16
-2.84506e-16
-2.84506e-16
-2.84506e-16
-2.84506e-16
-2.84506e-16
-2.84506e-16
-2.84506e-16
-2.84506e-16
-2.84506e-16
-2.84506e-16
-2.84506e-16
-2.84506e-16
-2.84506e-16
-2.84506e-16
-2.84506e-16
-2.84506e-16
-2.84506e-16
-2.84506e-16
-2.84506e-16
-2.84506e-16
-2.84506e-16
-2.84506e-16
-2.84506e-16
-2.84506e-16
-2.84506e-16
-2.84506e-16
-2.84506e-16
-2.84506e-16
-2.84506e-16
-2.84506e-16
-2.84506e-16
-2.84506e-16
-2.84506e-16
-2.84506e-16
-2.84506e-16
-2.84506e-16
-2.84506e-16
-2.84506e-16
-2.84506e-16
-2.84506e-16
-2.84506e-16
-2.84506e-16
-2.84506e-16
-2.84506e-16
-2.84506e-16
-2.84506e-16
-2.84506e-16
-2.84506e-16
-2.84506e-16
-2.84506e-16
-2.84506e-16
-2.84506e-16
-2.84506e-16
-2.84506e-16
-2.84506e-16
-2.84506e-16
-2.84506e-16
-2.84506e-16
-2.84506e-16
-2.84506e-16
-2.84506e-16
-2.84506e-16
-2.84506e-16
-2.84506e-16
-2.84506e-16
-2.84506e-16
-2.84506e-16
-2.84506e-16
-2.84506e-16
-2.84506e-16
-2.84506e-16
-2.84506e-16
-2.84506e-16
-2.84506e-16
-2.84506e-16
-2.84506e-16
-2.84506e-16
-2.84506e-16
-2.84506e-16
-2.84506e-16
-2.84506e-16
-2.84506e-16
-2.84506e-16
-2.84506e-16
-2.84506e-16
-2.84506e-16
-2.84506e-16
-2.84506e-16
-2.84506e-16
-2.84506e-16
-2.84506e-16
-2.84506e-16
-2.84506e-16
-2.84506e-16
-2.84506e-16
-2.84506e-16
-2.84506e-16
-2.84506e-16
-2.84506e-16
-2.84506e-16
-2.84506e-16
-2.84506e-16
-2.84506e-16
-2.84506e-16
-2.84506e-16
-2.84506e-16
-2.84506e-16
-2.84506e-16
-2.84506e-16
-2.84506e-16
-2.84506e-16
-2.84506e-16
-2.84506e-16
-2.84506e-16
-2.84506e-16
-2.84506e-16
-2.84506e-16
-2.84506e-16
-2.84506e-16
-2.84506e-16
-2.84506e-16
-2.84506e-16
-2.84506e-16
-2.84506e-16
-2.84506e-16
-2.84506e-16
-2.84506e-16
-2.84506e-16
-2.84506e-16
-2.84506e-16
-2.84506e-16
-2.84506e-16
-2.84506e-16
-2.84506e-16
-2.84506e-16
-2.84506e-16
-2.84506e-16
-2.84506e-16
-2.84506e-16
-2.84506e-16
-2.84506e-16
-2.84506e-16
-2.84506e-16
-2.84506e-16
-2.84506e-16
-2.84506e-16
-2.84506e-16
-2.84506e-16
-2.84506e-16
-2.84506e-16
-2.84506e-16
-2.84506e-16
-2.84506e-16
-2.84506e-16
-2.84506e-16
-2.84506e-16
-2.84506e-16
-2.84506e-16
-2.84506e-16
-2.84506e-16
-2.84506e-16
-2.84506e-16
-2.84506e-16
-2.84506e-16
-2.84506e-16
-2.84506e-16
-2.84506e-16
-2.84506e-16
-2.84506e-16
-2.84506e-16
-2.84506e-16
-2.84506e-16
-2.84506e-16
-2.84506e-16
-2.84506e-16
-2.84506e-16
-2.84506e-16
-2.84506e-16
-2.84506e-16
-2.84506e-16
-2.84506e-16
-2.84506e-16
-2.84506e-16
-2.84506e-16
-2.84506e-16
-2.84506e-16
-2.84506e-16
-2.84506e-16
-2.84506e-16
-2.84506e-16
-2.84506e-16
-2.84506e-16
-2.84506e-16
-2.84506e-16
-2.84506e-16
-2.84506e-16
-2.84506e-16
-2.84506e-16
-2.84506e-16
-2.84506e-16
-2.84506e-16
-2.84506e-16
-2.84506e-16
-2.84506e-16
-2.84506e-16
-2.84506e-16
-2.84506e-16
-2.84506e-16
-2.84506e-16
-2.84506e-16
-2.84506e-16
-2.84506e-16
-2.84506e-16
-2.84506e-16
-2.84506e-16
-2.84506e-16
-2.84506e-16
-2.84506e-16
-2.84506e-16
-2.84506e-16
-2.84506e-16
-2.84506e-16
-2.84506e-16
-2.84506e-16
-2.84506e-16
-2.84506e-16
-2.84506e-16
-2.84506e-16
-2.84506e-16
-2.84506e-16
-2.84506e-16
-2.84506e-16
-2.84506e-16
-2.84506e-16
-2.84506e-16
-2.84506e-16
-2.84506e-16
-2.84506e-16
-2.84506e-16
-2.84506e-16
-2.84506e-16
-2.84506e-16
-2.84506e-16
-2.84506e-16
-2.84506e-16
-2.84506e-16
-2.84506e-16
-2.84506e-16
-2.84506e-16
-2.84506e-16
-2.84506e-16
-2.84506e-16
-2.84506e-16
-2.84506e-16
-2.84506e-16
-2.84506e-16
-2.84506e-16
-2.84506e-16
-2.84506e-16
-2.84506e-16
-2.84506e-16
-2.84506e-16
-2.84506e-16
-2.84506e-16
-2.84506e-16
-2.84506e-16
-2.84506e-16
-2.84506e-16
-2.84506e-16
-2.84506e-16
-2.84506e-16
-2.84506e-16
-2.84506e-16
-2.84506e-16
-2.84506e-16
-2.84506e-16
-2.84506e-16
-2.84506e-16
-2.84506e-16
-2.84506e-16
-2.84506e-16
-2.84506e-16
-2.84506e-16
-2.84506e-16
-2.84506e-16
-2.84506e-16
-2.84506e-16
-2.84506e-16
-2.84506e-16
-2.84506e-16
-2.84506e-16
-2.84506e-16
-2.84506e-16
-2.84506e-16
-2.84506e-16
-2.84506e-16
-2.84506e-16
-2.84506e-16
-2.84506e-16
-2.84506e-16
-2.84506e-16
-2.84506e-16
-2.84506e-16
-2.84506e-16
-2.84506e-16
-2.84506e-16
-2.84506e-16
-2.84506e-16
-2.84506e-16
-2.84506e-16
-2.84506e-16
-2.84506e-16
-2.84506e-16
-2.84506e-16
-2.84506e-16
-2.84506e-16
-2.84506e-16
-2.84506e-16
-2.84506e-16
-2.84506e-16
-2.84506e-16
-2.84506e-16
-2.84506e-16
-2.84506e-16
-2.84506e-16
-2.84506e-16
-2.84506e-16
-2.84506e-16
-2.84506e-16
-2.84506e-16
-2.84506e-16
-2.84506e-16
-2.84506e-16
-2.84506e-16
-2.84506e-16
-2.84506e-16
-2.84506e-16
-2.84506e-16
-2.84506e-16
-2.84506e-16
-2.84506e-16
-2.84506e-16
-2.84506e-16
-2.84506e-16
-2.84506e-16
-2.84506e-16
-2.84506e-16
-2.84506e-16
-2.84506e-16
-2.84506e-16
-2.84506e-16
-2.84506e-16
-2.84506e-16
-2.84506e-16
-2.84506e-16
-2.84506e-16
-2.84506e-16
-2.84506e-16
-2.84506e-16
-2.84506e-16
-2.84506e-16
-2.84506e-16
-2.84506e-16
-2.84506e-16
-2.84506e-16
-2.84506e-16
-2.84506e-16
-2.84506e-16
-2.84506e-16
-2.84506e-16
-2.84506e-16
-2.84506e-16
-2.84506e-16
-2.84506e-16
-2.84506e-16
-2.84506e-16
-2.84506e-16
-2.84506e-16
-2.84506e-16
-2.84506e-16
-2.84506e-16
-2.84506e-16
-2.84506e-16
-2.84506e-16
-2.84506e-16
-2.84506e-16
-2.84506e-16
-2.84506e-16
-2.84506e-16
-2.84506e-16
-2.84506e-16
-2.84506e-16
-2.84506e-16
-2.84506e-16
-2.84506e-16
-2.84506e-16
-2.84506e-16
-2.84506e-16
-2.84506e-16
-2.84506e-16
-2.84506e-16
-2.84506e-16
-2.84506e-16
-2.84506e-16
-2.84506e-16
-2.84506e-16
-2.84506e-16
-2.84506e-16
-2.84506e-16
-2.84506e-16
-2.84506e-16
-2.84506e-16
-2.84506e-16
-2.84506e-16
-2.84506e-16
-2.84506e-16
-2.84506e-16
-2.84506e-16
-2.84506e-16
-2.84506e-16
-2.84506e-16
-2.84506e-16
-2.84506e-16
-2.84506e-16
-2.84506e-16
-2.84506e-16
-2.84506e-16
-2.84506e-16
-2.84506e-16
-2.84506e-16
-2.84506e-16
-2.84506e-16
-2.84506e-16
-2.84506e-16
-2.84506e-16
-2.84506e-16
-2.84506e-16
-2.84506e-16
-2.84506e-16
-2.84506e-16
-2.84506e-16
-2.84506e-16
-2.84506e-16
-2.84506e-16
-2.84506e-16
-2.84506e-16
-2.84506e-16
-2.84506e-16
-2.84506e-16
-2.84506e-16
-2.84506e-16
-2.84506e-16
-2.84506e-16
-2.84506e-16
-2.84506e-16
-2.84506e-16
-2.84506e-16
-2.84506e-16
-2.84506e-16
-2.84506e-16
-2.84506e-16
-2.84506e-16
-2.84506e-16
-2.84506e-16
-2.84506e-16
-2.84506e-16
-2.84506e-16
-2.84506e-16
-2.84506e-16
-2.84506e-16
-2.84506e-16
-2.84506e-16
-2.84506e-16
-2.84506e-16
-2.84506e-16
-2.84506e-16
-2.84506e-16
-2.84506e-16
-2.84506e-16
-2.84506e-16
-2.84506e-16
-2.84506e-16
-2.84506e-16
-2.84506e-16
-2.84506e-16
-2.84506e-16
-2.84506e-16
-2.84506e-16
-2.84506e-16
-2.84506e-16
-2.84506e-16
-2.84506e-16
-2.84506e-16
-2.84506e-16
-2.84506e-16
-2.84506e-16
-2.84506e-16
-2.84506e-16
-2.84506e-16
-2.84506e-16
-2.84506e-16
-2.84506e-16
-2.84506e-16
-2.84506e-16
-2.84506e-16
-2.84506e-16
-2.84506e-16
-2.84506e-16
-2.84506e-16
-2.84506e-16
-2.84506e-16
-2.84506e-16
-2.84506e-16
-2.84506e-16
-2.84506e-16
-2.84506e-16
-2.84506e-16
-2.84506e-16
-2.84506e-16
-2.84506e-16
-2.84506e-16
-2.84506e-16
-2.84506e-16
-2.84506e-16
-2.84506e-16
-2.84506e-16
-2.84506e-16
-2.84506e-16
-2.84506e-16
-2.84506e-16
-2.84506e-16
-2.84506e-16
-2.84506e-16
-2.84506e-16
-2.84506e-16
-2.84506e-16
-2.84506e-16
-2.84506e-16
-2.84506e-16
-2.84506e-16
-2.84506e-16
-2.84506e-16
-2.84506e-16
-2.84506e-16
-2.84506e-16
-2.84506e-16
-2.84506e-16
-2.84506e-16
-2.84506e-16
-2.84506e-16
-2.84506e-16
-2.84506e-16
-2.84506e-16
-2.84506e-16
-2.84506e-16
-2.84506e-16
-2.84506e-16
-2.84506e-16
-2.84506e-16
-2.84506e-16
-2.84506e-16
-2.84506e-16
-2.84506e-16
-2.84506e-16
-2.84506e-16
-2.84506e-16
-2.84506e-16
-2.84506e-16
-2.84506e-16
-2.84506e-16
-2.84506e-16
-2.84506e-16
-2.84506e-16
-2.84506e-16
-2.84506e-16
-2.84506e-16
-2.84506e-16
-2.84506e-16
-2.84506e-16
-2.84506e-16
-2.84506e-16
-2.84506e-16
-2.84506e-16
-2.84506e-16
-2.84506e-16
-2.84506e-16
-2.84506e-16
-2.84506e-16
-2.84506e-16
-2.84506e-16
-2.84506e-16
-2.84506e-16
-2.84506e-16
-2.84506e-16
-2.84506e-16
-2.84506e-16
-2.84506e-16
-2.84506e-16
-2.84506e-16
-2.84506e-16
-2.84506e-16
-2.84506e-16
-2.84506e-16
-2.84506e-16
-2.84506e-16
-2.84506e-16
-2.84506e-16
-2.84506e-16
-2.84506e-16
-2.84506e-16
-2.84506e-16
-2.84506e-16
-2.84506e-16
-2.84506e-16
-2.84506e-16
-2.84506e-16
-2.84506e-16
-2.84506e-16
-2.84506e-16
-2.84506e-16
-2.84506e-16
-2.84506e-16
-2.84506e-16
-2.84506e-16
-2.84506e-16
-2.84506e-16
-2.84506e-16
-2.84506e-16
-2.84506e-16
-2.84506e-16
-2.84506e-16
-2.84506e-16
-2.84506e-16
-2.84506e-16
-2.84506e-16
-2.84506e-16
-2.84506e-16
-2.84506e-16
-2.84506e-16
-2.84506e-16
-2.84506e-16
-2.84506e-16
-2.84506e-16
-2.84506e-16
-2.84506e-16
-2.84506e-16
-2.84506e-16
-2.84506e-16
-2.84506e-16
-2.84506e-16
-2.84506e-16
-2.84506e-16
-2.84506e-16
-2.84506e-16
-2.84506e-16
-2.84506e-16
-2.84506e-16
-2.84506e-16
-2.84506e-16
-2.84506e-16
-2.84506e-16
-2.84506e-16
-2.84506e-16
-2.84506e-16
-2.84506e-16
-2.84506e-16
-2.84506e-16
-2.84506e-16
-2.84506e-16
-2.84506e-16
-2.84506e-16
-2.84506e-16
-2.84506e-16
-2.84506e-16
-2.84506e-16
-2.84506e-16
-2.84506e-16
-2.84506e-16
-2.84506e-16
-2.84506e-16
-2.84506e-16
-2.84506e-16
-2.84506e-16
-2.84506e-16
-2.84506e-16
-2.84506e-16
-2.84506e-16
-2.84506e-16
-2.84506e-16
-2.84506e-16
-2.84506e-16
-2.84506e-16
-2.84506e-16
-2.84506e-16
-2.84506e-16
-2.84506e-16
-2.84506e-16
-2.84506e-16
-2.84506e-16
-2.84506e-16
-2.84506e-16
-2.84506e-16
-2.84506e-16
-2.84506e-16
-2.84506e-16
-2.84506e-16
-2.84506e-16
-2.84506e-16
-2.84506e-16
-2.84506e-16
-2.84506e-16
-2.84506e-16
-2.84506e-16
-2.84506e-16
-2.84506e-16
-2.84506e-16
-2.84506e-16
-2.84506e-16
-2.84506e-16
-2.84506e-16
-2.84506e-16
-2.84506e-16
-2.84506e-16
-2.84506e-16
-2.84506e-16
-2.84506e-16
-2.84506e-16
-2.84506e-16
-2.84506e-16
-2.84506e-16
)
;

boundaryField
{
    top_wall
    {
        type            zeroGradient;
    }
    inlet
    {
        type            cyclic;
    }
    bot_wall
    {
        type            zeroGradient;
    }
    outlet
    {
        type            cyclic;
    }
    frontAndBack
    {
        type            empty;
    }
}


// ************************************************************************* //
