/*--------------------------------*- C++ -*----------------------------------*\
| =========                 |                                                 |
| \\      /  F ield         | OpenFOAM: The Open Source CFD Toolbox           |
|  \\    /   O peration     | Version:  2406                                  |
|   \\  /    A nd           | Website:  www.openfoam.com                      |
|    \\/     M anipulation  |                                                 |
\*---------------------------------------------------------------------------*/
FoamFile
{
    version     2.0;
    format      ascii;
    arch        "LSB;label=32;scalar=64";
    class       surfaceScalarField;
    location    "20.585";
    object      phi;
}
// * * * * * * * * * * * * * * * * * * * * * * * * * * * * * * * * * * * * * //

dimensions      [0 3 -1 0 0 0 0];

oriented        oriented;

internalField   nonuniform List<scalar> 
999
(
-7.91266e-19
-7.89727e-19
-7.91012e-19
-7.9003e-19
-7.86211e-19
-7.86087e-19
-7.88637e-19
-7.86132e-19
-7.46588e-19
-7.44933e-19
-7.33505e-19
-7.39597e-19
-7.32965e-19
-7.37513e-19
-7.70705e-19
-7.74571e-19
-7.78883e-19
-7.83325e-19
-7.86231e-19
-7.88617e-19
-7.90569e-19
-7.92162e-19
-7.93461e-19
-7.94522e-19
-7.95389e-19
-7.96102e-19
-7.9669e-19
-7.9718e-19
-7.97594e-19
-7.97948e-19
-7.98256e-19
-7.98532e-19
-7.98783e-19
-7.99018e-19
-7.99243e-19
-7.99462e-19
-7.9968e-19
-7.99899e-19
-8.00121e-19
-8.00347e-19
-8.00579e-19
-8.00816e-19
-8.01059e-19
-8.01308e-19
-8.01561e-19
-8.01818e-19
-8.02078e-19
-8.0234e-19
-8.02603e-19
-8.02865e-19
-8.03124e-19
-8.0338e-19
-8.03631e-19
-8.03874e-19
-8.0411e-19
-8.04336e-19
-8.0455e-19
-8.04751e-19
-8.04938e-19
-8.05109e-19
-8.05262e-19
-8.05396e-19
-8.0551e-19
-8.05601e-19
-8.05668e-19
-8.0571e-19
-8.05726e-19
-8.05712e-19
-8.05669e-19
-8.05594e-19
-8.05485e-19
-8.05341e-19
-8.05161e-19
-8.04941e-19
-8.04682e-19
-8.0438e-19
-8.04034e-19
-8.03642e-19
-8.03203e-19
-8.02714e-19
-8.02174e-19
-8.0158e-19
-8.00932e-19
-8.00227e-19
-7.99464e-19
-7.98642e-19
-7.97759e-19
-7.96815e-19
-7.95808e-19
-7.94738e-19
-7.93605e-19
-7.92409e-19
-7.9115e-19
-7.8983e-19
-7.8845e-19
-7.87012e-19
-7.85518e-19
-7.83972e-19
-7.82378e-19
-7.8074e-19
-7.79064e-19
-7.77354e-19
-7.75618e-19
-7.73864e-19
-7.72098e-19
-7.7033e-19
-7.68569e-19
-7.66823e-19
-7.65104e-19
-7.6342e-19
-7.61783e-19
-7.60201e-19
-7.58684e-19
-7.5724e-19
-7.55878e-19
-7.54602e-19
-7.53418e-19
-7.52327e-19
-7.5133e-19
-7.50421e-19
-7.49595e-19
-7.48839e-19
-7.48137e-19
-7.47466e-19
-7.46797e-19
-7.4609e-19
-7.45297e-19
-7.44353e-19
-7.43181e-19
-7.41679e-19
-7.39762e-19
-7.37315e-19
-7.34187e-19
-7.30192e-19
-7.25095e-19
-7.1865e-19
-7.10554e-19
-6.99248e-19
-6.86426e-19
-6.76546e-19
-6.9864e-19
-6.88926e-19
-6.76448e-19
-6.65543e-19
-6.5784e-19
-6.51804e-19
-6.47154e-19
-6.43626e-19
-6.40978e-19
-6.39011e-19
-6.37567e-19
-6.36522e-19
-6.35781e-19
-6.35238e-19
-6.34805e-19
-6.34413e-19
-6.34004e-19
-6.33529e-19
-6.32975e-19
-6.32336e-19
-6.31577e-19
-6.30665e-19
-6.29577e-19
-6.28288e-19
-6.2678e-19
-6.25035e-19
-6.23037e-19
-6.20804e-19
-6.20724e-19
-6.19634e-19
-6.16145e-19
-6.67669e-19
-6.63512e-19
-6.61019e-19
-6.58917e-19
-6.54059e-19
-6.48827e-19
-6.43239e-19
-6.3728e-19
-6.30937e-19
-6.242e-19
-6.17065e-19
-6.09535e-19
-6.0162e-19
-5.93335e-19
-5.84707e-19
-5.75776e-19
-5.666e-19
-5.57258e-19
-5.47858e-19
-5.38503e-19
-5.29334e-19
-5.20522e-19
-5.12249e-19
-5.04736e-19
-4.98288e-19
-4.93272e-19
-4.90148e-19
-4.89514e-19
-4.92124e-19
-5.00127e-19
-5.117e-19
-5.20299e-19
-6.09208e-19
-6.15157e-19
-6.19677e-19
-6.22615e-19
-6.20462e-19
-6.15952e-19
-6.09816e-19
-6.02592e-19
-5.94683e-19
-5.8636e-19
-5.77812e-19
-5.692e-19
-5.60638e-19
-5.52206e-19
-5.43955e-19
-5.35917e-19
-5.28104e-19
-5.20521e-19
-5.13164e-19
-5.06053e-19
-4.99203e-19
-4.92598e-19
-4.86221e-19
-4.80058e-19
-4.74094e-19
-4.68317e-19
-4.62716e-19
-4.57282e-19
-4.52007e-19
-4.46883e-19
-4.41905e-19
-4.37067e-19
-4.32365e-19
-4.27796e-19
-4.23354e-19
-4.19038e-19
-4.14843e-19
-4.10766e-19
-4.06803e-19
-4.02952e-19
-3.99207e-19
-3.95565e-19
-3.92022e-19
-3.88572e-19
-3.85242e-19
-3.8203e-19
-3.78904e-19
-3.75863e-19
-3.72902e-19
-3.7004e-19
-3.67297e-19
-3.64668e-19
-3.6212e-19
-3.59623e-19
-3.572e-19
-3.54873e-19
-3.52637e-19
-3.50486e-19
-3.48416e-19
-3.46423e-19
-3.44502e-19
-3.42649e-19
-3.4086e-19
-3.3913e-19
-3.37455e-19
-3.35833e-19
-3.34259e-19
-3.3273e-19
-3.31244e-19
-3.29797e-19
-3.28388e-19
-3.27013e-19
-3.25671e-19
-3.24359e-19
-3.23076e-19
-3.2182e-19
-3.20589e-19
-3.19381e-19
-3.18197e-19
-3.17033e-19
-3.15889e-19
-3.14763e-19
-3.13656e-19
-3.12565e-19
-3.1149e-19
-3.10429e-19
-3.09383e-19
-3.0835e-19
-3.07329e-19
-3.0632e-19
-3.05323e-19
-3.04336e-19
-3.03358e-19
-3.02391e-19
-3.01432e-19
-3.00481e-19
-2.99539e-19
-2.98603e-19
-2.97675e-19
-2.96753e-19
-2.95837e-19
-2.94927e-19
-2.94022e-19
-2.93121e-19
-2.92225e-19
-2.91334e-19
-2.90446e-19
-2.89561e-19
-2.8868e-19
-2.87801e-19
-2.86925e-19
-2.86051e-19
-2.85178e-19
-2.84308e-19
-2.83439e-19
-2.82571e-19
-2.81704e-19
-2.80837e-19
-2.79971e-19
-2.79105e-19
-2.78239e-19
-2.77373e-19
-2.76507e-19
-2.7564e-19
-2.74772e-19
-2.73903e-19
-2.73034e-19
-2.72163e-19
-2.71291e-19
-2.70417e-19
-2.69542e-19
-2.68665e-19
-2.67786e-19
-2.66906e-19
-2.66023e-19
-2.65139e-19
-2.64252e-19
-2.63363e-19
-2.62472e-19
-2.61579e-19
-2.60683e-19
-2.59785e-19
-2.58884e-19
-2.57981e-19
-2.57076e-19
-2.56168e-19
-2.55257e-19
-2.54344e-19
-2.53429e-19
-2.52511e-19
-2.5159e-19
-2.50667e-19
-2.49741e-19
-2.48813e-19
-2.47883e-19
-2.4695e-19
-2.46014e-19
-2.45077e-19
-2.44137e-19
-2.43195e-19
-2.4225e-19
-2.41303e-19
-2.40355e-19
-2.39404e-19
-2.38451e-19
-2.37496e-19
-2.3654e-19
-2.35581e-19
-2.34621e-19
-2.33659e-19
-2.32695e-19
-2.3173e-19
-2.30763e-19
-2.29795e-19
-2.28825e-19
-2.27854e-19
-2.26882e-19
-2.25908e-19
-2.24934e-19
-2.23958e-19
-2.22981e-19
-2.22004e-19
-2.21025e-19
-2.20046e-19
-2.19066e-19
-2.18086e-19
-2.17105e-19
-2.16123e-19
-2.15141e-19
-2.14159e-19
-2.13176e-19
-2.12193e-19
-2.1121e-19
-2.10227e-19
-2.09244e-19
-2.0826e-19
-2.07277e-19
-2.06294e-19
-2.05311e-19
-2.04329e-19
-2.03346e-19
-2.02364e-19
-2.01383e-19
-2.00402e-19
-1.99421e-19
-1.98441e-19
-1.97461e-19
-1.96483e-19
-1.95504e-19
-1.94527e-19
-1.93551e-19
-1.92575e-19
-1.916e-19
-1.90626e-19
-1.89653e-19
-1.88681e-19
-1.8771e-19
-1.8674e-19
-1.85771e-19
-1.84804e-19
-1.83837e-19
-1.82872e-19
-1.81908e-19
-1.80945e-19
-1.79984e-19
-1.79023e-19
-1.78065e-19
-1.77107e-19
-1.76151e-19
-1.75197e-19
-1.74244e-19
-1.73292e-19
-1.72342e-19
-1.71394e-19
-1.70447e-19
-1.69501e-19
-1.68558e-19
-1.67616e-19
-1.66675e-19
-1.65737e-19
-1.648e-19
-1.63864e-19
-1.62931e-19
-1.61999e-19
-1.61069e-19
-1.60141e-19
-1.59215e-19
-1.5829e-19
-1.57368e-19
-1.56447e-19
-1.55529e-19
-1.54612e-19
-1.53697e-19
-1.52784e-19
-1.51874e-19
-1.50965e-19
-1.50058e-19
-1.49154e-19
-1.48251e-19
-1.47351e-19
-1.46453e-19
-1.45557e-19
-1.44664e-19
-1.43772e-19
-1.42883e-19
-1.41996e-19
-1.41112e-19
-1.40229e-19
-1.3935e-19
-1.38472e-19
-1.37597e-19
-1.36725e-19
-1.35855e-19
-1.34987e-19
-1.34122e-19
-1.3326e-19
-1.324e-19
-1.31543e-19
-1.30688e-19
-1.29837e-19
-1.28988e-19
-1.28141e-19
-1.27298e-19
-1.26457e-19
-1.25619e-19
-1.24784e-19
-1.23952e-19
-1.23123e-19
-1.22297e-19
-1.21473e-19
-1.20653e-19
-1.19836e-19
-1.19022e-19
-1.1821e-19
-1.174e-19
-1.16593e-19
-1.15788e-19
-1.14985e-19
-1.14184e-19
-1.13386e-19
-1.1259e-19
-1.11797e-19
-1.11007e-19
-1.1022e-19
-1.09437e-19
-1.08657e-19
-1.07881e-19
-1.07108e-19
-1.06339e-19
-1.05573e-19
-1.04811e-19
-1.04053e-19
-1.03298e-19
-1.02546e-19
-1.01798e-19
-1.01054e-19
-1.00314e-19
-9.95771e-20
-9.8844e-20
-9.81147e-20
-9.73891e-20
-9.66673e-20
-9.59493e-20
-9.5235e-20
-9.45245e-20
-9.38179e-20
-9.3115e-20
-9.2416e-20
-9.17209e-20
-9.10296e-20
-9.03421e-20
-8.96586e-20
-8.89789e-20
-8.8303e-20
-8.76311e-20
-8.69631e-20
-8.62989e-20
-8.56387e-20
-8.49823e-20
-8.43299e-20
-8.36813e-20
-8.30367e-20
-8.23959e-20
-8.17591e-20
-8.11261e-20
-8.0497e-20
-7.98718e-20
-7.92506e-20
-7.86331e-20
-7.80196e-20
-7.74099e-20
-7.68041e-20
-7.62022e-20
-7.56041e-20
-7.50098e-20
-7.44193e-20
-7.38327e-20
-7.32499e-20
-7.26709e-20
-7.20957e-20
-7.15242e-20
-7.09565e-20
-7.03926e-20
-6.98324e-20
-6.9276e-20
-6.87232e-20
-6.81742e-20
-6.76289e-20
-6.70872e-20
-6.65492e-20
-6.60148e-20
-6.54841e-20
-6.4957e-20
-6.44335e-20
-6.39136e-20
-6.33972e-20
-6.28845e-20
-6.23752e-20
-6.18695e-20
-6.13673e-20
-6.08686e-20
-6.03734e-20
-5.98816e-20
-5.93933e-20
-5.89084e-20
-5.84269e-20
-5.79488e-20
-5.74741e-20
-5.70027e-20
-5.65347e-20
-5.607e-20
-5.56087e-20
-5.51506e-20
-5.46958e-20
-5.42443e-20
-5.3796e-20
-5.33509e-20
-5.29091e-20
-5.24704e-20
-5.20349e-20
-5.16026e-20
-5.11734e-20
-5.07473e-20
-5.03244e-20
-4.99045e-20
-4.94877e-20
-4.9074e-20
-4.86633e-20
-4.82556e-20
-4.7851e-20
-4.74493e-20
-4.70506e-20
-4.66548e-20
-4.6262e-20
-4.58721e-20
-4.54852e-20
-4.51011e-20
-4.47198e-20
-4.43415e-20
-4.3966e-20
-4.35933e-20
-4.32234e-20
-4.28563e-20
-4.24919e-20
-4.21304e-20
-4.17715e-20
-4.14154e-20
-4.10621e-20
-4.07114e-20
-4.03633e-20
-4.0018e-20
-3.96753e-20
-3.93352e-20
-3.89977e-20
-3.86629e-20
-3.83306e-20
-3.80009e-20
-3.76737e-20
-3.73491e-20
-3.7027e-20
-3.67074e-20
-3.63903e-20
-3.60756e-20
-3.57635e-20
-3.54537e-20
-3.51465e-20
-3.48416e-20
-3.45391e-20
-3.4239e-20
-3.39413e-20
-3.36459e-20
-3.33529e-20
-3.30622e-20
-3.27738e-20
-3.24877e-20
-3.22039e-20
-3.19223e-20
-3.16431e-20
-3.1366e-20
-3.10912e-20
-3.08186e-20
-3.05481e-20
-3.02799e-20
-3.00138e-20
-2.97499e-20
-2.94881e-20
-2.92285e-20
-2.89709e-20
-2.87155e-20
-2.84621e-20
-2.82109e-20
-2.79616e-20
-2.77144e-20
-2.74693e-20
-2.72262e-20
-2.6985e-20
-2.67459e-20
-2.65087e-20
-2.62735e-20
-2.60402e-20
-2.58089e-20
-2.55795e-20
-2.5352e-20
-2.51264e-20
-2.49027e-20
-2.46809e-20
-2.44609e-20
-2.42428e-20
-2.40265e-20
-2.3812e-20
-2.35993e-20
-2.33885e-20
-2.31794e-20
-2.2972e-20
-2.27665e-20
-2.25627e-20
-2.23606e-20
-2.21602e-20
-2.19615e-20
-2.17646e-20
-2.15693e-20
-2.13757e-20
-2.11838e-20
-2.09935e-20
-2.08048e-20
-2.06178e-20
-2.04324e-20
-2.02486e-20
-2.00664e-20
-1.98857e-20
-1.97066e-20
-1.95291e-20
-1.93531e-20
-1.91787e-20
-1.90058e-20
-1.88344e-20
-1.86645e-20
-1.8496e-20
-1.83291e-20
-1.81636e-20
-1.79996e-20
-1.7837e-20
-1.76759e-20
-1.75161e-20
-1.73578e-20
-1.72009e-20
-1.70454e-20
-1.68913e-20
-1.67385e-20
-1.65871e-20
-1.64371e-20
-1.62884e-20
-1.6141e-20
-1.59949e-20
-1.58501e-20
-1.57067e-20
-1.55645e-20
-1.54236e-20
-1.5284e-20
-1.51456e-20
-1.50085e-20
-1.48726e-20
-1.4738e-20
-1.46046e-20
-1.44724e-20
-1.43413e-20
-1.42115e-20
-1.40829e-20
-1.39554e-20
-1.38291e-20
-1.3704e-20
-1.358e-20
-1.34571e-20
-1.33353e-20
-1.32147e-20
-1.30952e-20
-1.29768e-20
-1.28595e-20
-1.27432e-20
-1.26281e-20
-1.25139e-20
-1.24009e-20
-1.22889e-20
-1.21779e-20
-1.2068e-20
-1.19591e-20
-1.18512e-20
-1.17443e-20
-1.16384e-20
-1.15335e-20
-1.14296e-20
-1.13267e-20
-1.12247e-20
-1.11236e-20
-1.10236e-20
-1.09244e-20
-1.08262e-20
-1.07289e-20
-1.06326e-20
-1.05371e-20
-1.04426e-20
-1.03489e-20
-1.02561e-20
-1.01643e-20
-1.00732e-20
-9.98309e-21
-9.89379e-21
-9.80534e-21
-9.71774e-21
-9.63097e-21
-9.54503e-21
-9.45991e-21
-9.37561e-21
-9.29211e-21
-9.20941e-21
-9.12751e-21
-9.04639e-21
-8.96605e-21
-8.88649e-21
-8.80769e-21
-8.72964e-21
-8.65236e-21
-8.57582e-21
-8.50001e-21
-8.42494e-21
-8.3506e-21
-8.27698e-21
-8.20407e-21
-8.13187e-21
-8.06037e-21
-7.98956e-21
-7.91945e-21
-7.85001e-21
-7.78126e-21
-7.71317e-21
-7.64575e-21
-7.57899e-21
-7.51287e-21
-7.44741e-21
-7.38259e-21
-7.3184e-21
-7.25484e-21
-7.1919e-21
-7.12959e-21
-7.06788e-21
-7.00678e-21
-6.94628e-21
-6.88638e-21
-6.82707e-21
-6.76834e-21
-6.71019e-21
-6.65261e-21
-6.5956e-21
-6.53916e-21
-6.48327e-21
-6.42794e-21
-6.37315e-21
-6.31891e-21
-6.2652e-21
-6.21202e-21
-6.15937e-21
-6.10724e-21
-6.05563e-21
-6.00453e-21
-5.95394e-21
-5.90385e-21
-5.85426e-21
-5.80516e-21
-5.75655e-21
-5.70842e-21
-5.66076e-21
-5.61358e-21
-5.56687e-21
-5.52063e-21
-5.47484e-21
-5.42951e-21
-5.38462e-21
-5.34019e-21
-5.29619e-21
-5.25263e-21
-5.20951e-21
-5.16681e-21
-5.12453e-21
-5.08267e-21
-5.04123e-21
-5.0002e-21
-4.95957e-21
-4.91934e-21
-4.87952e-21
-4.84008e-21
-4.80103e-21
-4.76237e-21
-4.72409e-21
-4.68618e-21
-4.64865e-21
-4.61148e-21
-4.57468e-21
-4.53824e-21
-4.50215e-21
-4.46641e-21
-4.43102e-21
-4.39598e-21
-4.36127e-21
-4.3269e-21
-4.29286e-21
-4.25914e-21
-4.22575e-21
-4.19268e-21
-4.15992e-21
-4.12747e-21
-4.09533e-21
-4.06349e-21
-4.03195e-21
-4.00071e-21
-3.96976e-21
-3.93909e-21
-3.90871e-21
-3.8786e-21
-3.84877e-21
-3.81921e-21
-3.78991e-21
-3.76088e-21
-3.73211e-21
-3.70359e-21
-3.67532e-21
-3.64729e-21
-3.61951e-21
-3.59196e-21
-3.56465e-21
-3.53757e-21
-3.51071e-21
-3.48407e-21
-3.45765e-21
-3.43143e-21
-3.40543e-21
-3.37963e-21
-3.35402e-21
-3.32861e-21
-3.30338e-21
-3.27834e-21
-3.25348e-21
-3.22879e-21
-3.20427e-21
-3.17992e-21
-3.15572e-21
-3.13168e-21
-3.10778e-21
-3.08402e-21
-3.06041e-21
-3.03692e-21
-3.01356e-21
-2.99031e-21
-2.96718e-21
-2.94415e-21
-2.92123e-21
-2.89839e-21
-2.87564e-21
-2.85297e-21
-2.83037e-21
-2.80784e-21
-2.78536e-21
-2.76292e-21
-2.74053e-21
-2.71816e-21
-2.69581e-21
-2.67347e-21
-2.65113e-21
-2.62878e-21
-2.60641e-21
-2.58401e-21
-2.56155e-21
-2.53904e-21
-2.51645e-21
-2.49378e-21
-2.471e-21
-2.4481e-21
-2.42507e-21
-2.40188e-21
-2.37851e-21
-2.35495e-21
-2.33116e-21
-2.30713e-21
-2.28283e-21
-2.25823e-21
-2.2333e-21
-2.20801e-21
-2.18232e-21
-2.15618e-21
-2.12956e-21
-2.10241e-21
-2.07467e-21
-2.04628e-21
-2.01718e-21
-1.98729e-21
-1.95653e-21
-1.9248e-21
-1.892e-21
-1.85799e-21
-1.82264e-21
-1.78578e-21
-1.7472e-21
-1.70667e-21
-1.66392e-21
-1.61858e-21
-1.57025e-21
-1.51837e-21
-1.46227e-21
-1.40104e-21
-1.33346e-21
-1.25782e-21
-1.17167e-21
-1.07121e-21
-9.50342e-22
-7.98754e-22
-6.00044e-22
-3.39899e-22
)
;

boundaryField
{
    top_wall
    {
        type            calculated;
        value           uniform 0;
    }
    inlet
    {
        type            cyclic;
        value           nonuniform List<scalar> 
1000
(
-2.35966e-05
-5.92893e-05
-8.68995e-05
-0.000107533
-0.000123607
-0.000136715
-0.000147784
-0.000157375
-0.000165847
-0.000173443
-0.000180335
-0.000186648
-0.000192475
-0.000197891
-0.000202952
-0.000207703
-0.000212183
-0.000216423
-0.000220448
-0.00022428
-0.000227938
-0.000231438
-0.000234793
-0.000238017
-0.000241118
-0.000244108
-0.000246993
-0.000249782
-0.000252481
-0.000255096
-0.000257632
-0.000260095
-0.000262488
-0.000264816
-0.000267083
-0.000269291
-0.000271444
-0.000273545
-0.000275596
-0.000277601
-0.00027956
-0.000281476
-0.000283352
-0.000285189
-0.000286988
-0.000288752
-0.000290481
-0.000292178
-0.000293843
-0.000295478
-0.000297084
-0.000298661
-0.000300212
-0.000301737
-0.000303237
-0.000304713
-0.000306165
-0.000307595
-0.000309003
-0.00031039
-0.000311757
-0.000313104
-0.000314432
-0.000315741
-0.000317032
-0.000318306
-0.000319563
-0.000320804
-0.000322029
-0.000323238
-0.000324432
-0.000325611
-0.000326777
-0.000327928
-0.000329066
-0.000330191
-0.000331303
-0.000332402
-0.00033349
-0.000334565
-0.000335629
-0.000336682
-0.000337724
-0.000338754
-0.000339775
-0.000340785
-0.000341785
-0.000342776
-0.000343757
-0.000344728
-0.000345691
-0.000346644
-0.000347589
-0.000348525
-0.000349453
-0.000350373
-0.000351284
-0.000352188
-0.000353084
-0.000353973
-0.000354854
-0.000355728
-0.000356595
-0.000357454
-0.000358308
-0.000359154
-0.000359994
-0.000360827
-0.000361654
-0.000362475
-0.00036329
-0.000364099
-0.000364902
-0.000365699
-0.000366491
-0.000367277
-0.000368058
-0.000368833
-0.000369603
-0.000370368
-0.000371128
-0.000371883
-0.000372633
-0.000373378
-0.000374118
-0.000374854
-0.000375585
-0.000376311
-0.000377034
-0.000377751
-0.000378465
-0.000379174
-0.000379879
-0.00038058
-0.000381277
-0.00038197
-0.000382659
-0.000383344
-0.000384026
-0.000384703
-0.000385377
-0.000386048
-0.000386715
-0.000387378
-0.000388038
-0.000388694
-0.000389347
-0.000389997
-0.000390643
-0.000391286
-0.000391927
-0.000392563
-0.000393197
-0.000393828
-0.000394456
-0.00039508
-0.000395702
-0.000396321
-0.000396937
-0.00039755
-0.000398161
-0.000398768
-0.000399373
-0.000399976
-0.000400575
-0.000401173
-0.000401767
-0.000402359
-0.000402948
-0.000403535
-0.00040412
-0.000404702
-0.000405282
-0.000405859
-0.000406434
-0.000407007
-0.000407577
-0.000408145
-0.000408711
-0.000409275
-0.000409836
-0.000410396
-0.000410953
-0.000411508
-0.000412061
-0.000412612
-0.000413161
-0.000413708
-0.000414253
-0.000414796
-0.000415336
-0.000415876
-0.000416413
-0.000416948
-0.000417481
-0.000418013
-0.000418542
-0.00041907
-0.000419596
-0.00042012
-0.000420643
-0.000421163
-0.000421682
-0.000422199
-0.000422715
-0.000423229
-0.000423741
-0.000424251
-0.00042476
-0.000425267
-0.000425772
-0.000426276
-0.000426779
-0.000427279
-0.000427779
-0.000428276
-0.000428772
-0.000429267
-0.00042976
-0.000430251
-0.000430741
-0.00043123
-0.000431717
-0.000432202
-0.000432686
-0.000433169
-0.00043365
-0.00043413
-0.000434608
-0.000435085
-0.000435561
-0.000436035
-0.000436507
-0.000436979
-0.000437449
-0.000437918
-0.000438385
-0.000438851
-0.000439315
-0.000439779
-0.000440241
-0.000440701
-0.000441161
-0.000441619
-0.000442075
-0.000442531
-0.000442985
-0.000443438
-0.000443889
-0.00044434
-0.000444789
-0.000445237
-0.000445683
-0.000446129
-0.000446573
-0.000447015
-0.000447457
-0.000447897
-0.000448337
-0.000448774
-0.000449211
-0.000449647
-0.000450081
-0.000450514
-0.000450946
-0.000451376
-0.000451806
-0.000452234
-0.000452661
-0.000453087
-0.000453512
-0.000453935
-0.000454358
-0.000454779
-0.000455199
-0.000455617
-0.000456035
-0.000456451
-0.000456867
-0.000457281
-0.000457694
-0.000458105
-0.000458516
-0.000458925
-0.000459333
-0.00045974
-0.000460146
-0.000460551
-0.000460954
-0.000461357
-0.000461758
-0.000462158
-0.000462557
-0.000462954
-0.000463351
-0.000463746
-0.00046414
-0.000464533
-0.000464925
-0.000465316
-0.000465705
-0.000466093
-0.00046648
-0.000466866
-0.000467251
-0.000467635
-0.000468017
-0.000468398
-0.000468778
-0.000469157
-0.000469534
-0.000469911
-0.000470286
-0.00047066
-0.000471032
-0.000471404
-0.000471774
-0.000472143
-0.000472511
-0.000472878
-0.000473243
-0.000473607
-0.00047397
-0.000474332
-0.000474693
-0.000475052
-0.00047541
-0.000475767
-0.000476122
-0.000476476
-0.000476829
-0.000477181
-0.000477531
-0.00047788
-0.000478228
-0.000478575
-0.00047892
-0.000479264
-0.000479607
-0.000479948
-0.000480288
-0.000480627
-0.000480964
-0.0004813
-0.000481635
-0.000481968
-0.0004823
-0.000482631
-0.00048296
-0.000483288
-0.000483614
-0.00048394
-0.000484263
-0.000484586
-0.000484907
-0.000485226
-0.000485545
-0.000485861
-0.000486177
-0.000486491
-0.000486803
-0.000487114
-0.000487424
-0.000487732
-0.000488038
-0.000488343
-0.000488647
-0.000488949
-0.00048925
-0.000489549
-0.000489847
-0.000490143
-0.000490437
-0.00049073
-0.000491022
-0.000491312
-0.0004916
-0.000491887
-0.000492172
-0.000492455
-0.000492737
-0.000493018
-0.000493296
-0.000493573
-0.000493849
-0.000494123
-0.000494395
-0.000494665
-0.000494934
-0.000495201
-0.000495467
-0.00049573
-0.000495992
-0.000496252
-0.000496511
-0.000496768
-0.000497022
-0.000497276
-0.000497527
-0.000497777
-0.000498024
-0.00049827
-0.000498514
-0.000498757
-0.000498997
-0.000499236
-0.000499472
-0.000499707
-0.00049994
-0.000500171
-0.0005004
-0.000500627
-0.000500852
-0.000501076
-0.000501297
-0.000501516
-0.000501733
-0.000501948
-0.000502162
-0.000502373
-0.000502582
-0.000502789
-0.000502994
-0.000503197
-0.000503397
-0.000503596
-0.000503793
-0.000503987
-0.000504179
-0.000504369
-0.000504557
-0.000504742
-0.000504926
-0.000505107
-0.000505286
-0.000505462
-0.000505637
-0.000505809
-0.000505978
-0.000506146
-0.000506311
-0.000506473
-0.000506634
-0.000506792
-0.000506947
-0.0005071
-0.000507251
-0.000507399
-0.000507545
-0.000507688
-0.000507829
-0.000507967
-0.000508103
-0.000508236
-0.000508367
-0.000508495
-0.00050862
-0.000508743
-0.000508864
-0.000508981
-0.000509096
-0.000509209
-0.000509318
-0.000509425
-0.00050953
-0.000509631
-0.00050973
-0.000509826
-0.000509919
-0.00051001
-0.000510098
-0.000510183
-0.000510265
-0.000510344
-0.000510421
-0.000510494
-0.000510565
-0.000510633
-0.000510698
-0.00051076
-0.00051082
-0.000510876
-0.00051093
-0.00051098
-0.000511028
-0.000511072
-0.000511114
-0.000511153
-0.000511189
-0.000511222
-0.000511251
-0.000511278
-0.000511302
-0.000511323
-0.000511341
-0.000511356
-0.000511368
-0.000511377
-0.000511383
-0.000511386
-0.000511386
-0.000511383
-0.000511377
-0.000511368
-0.000511356
-0.000511341
-0.000511323
-0.000511302
-0.000511278
-0.000511251
-0.000511222
-0.000511189
-0.000511153
-0.000511114
-0.000511072
-0.000511028
-0.00051098
-0.00051093
-0.000510876
-0.00051082
-0.00051076
-0.000510698
-0.000510633
-0.000510565
-0.000510494
-0.000510421
-0.000510344
-0.000510265
-0.000510183
-0.000510098
-0.00051001
-0.000509919
-0.000509826
-0.00050973
-0.000509631
-0.00050953
-0.000509425
-0.000509318
-0.000509209
-0.000509096
-0.000508981
-0.000508864
-0.000508743
-0.000508621
-0.000508495
-0.000508367
-0.000508236
-0.000508103
-0.000507967
-0.000507829
-0.000507688
-0.000507545
-0.000507399
-0.000507251
-0.0005071
-0.000506947
-0.000506792
-0.000506634
-0.000506473
-0.000506311
-0.000506146
-0.000505978
-0.000505809
-0.000505637
-0.000505462
-0.000505286
-0.000505107
-0.000504926
-0.000504742
-0.000504557
-0.000504369
-0.000504179
-0.000503987
-0.000503793
-0.000503596
-0.000503397
-0.000503197
-0.000502994
-0.000502789
-0.000502582
-0.000502373
-0.000502162
-0.000501949
-0.000501733
-0.000501516
-0.000501297
-0.000501076
-0.000500852
-0.000500627
-0.0005004
-0.000500171
-0.00049994
-0.000499707
-0.000499472
-0.000499236
-0.000498997
-0.000498757
-0.000498515
-0.00049827
-0.000498024
-0.000497777
-0.000497527
-0.000497276
-0.000497023
-0.000496768
-0.000496511
-0.000496252
-0.000495992
-0.00049573
-0.000495467
-0.000495201
-0.000494934
-0.000494665
-0.000494395
-0.000494123
-0.000493849
-0.000493574
-0.000493296
-0.000493018
-0.000492737
-0.000492455
-0.000492172
-0.000491887
-0.0004916
-0.000491312
-0.000491022
-0.00049073
-0.000490437
-0.000490143
-0.000489847
-0.000489549
-0.00048925
-0.000488949
-0.000488647
-0.000488343
-0.000488038
-0.000487732
-0.000487424
-0.000487114
-0.000486803
-0.000486491
-0.000486177
-0.000485861
-0.000485545
-0.000485226
-0.000484907
-0.000484586
-0.000484264
-0.00048394
-0.000483615
-0.000483288
-0.00048296
-0.000482631
-0.0004823
-0.000481968
-0.000481635
-0.0004813
-0.000480964
-0.000480627
-0.000480288
-0.000479948
-0.000479607
-0.000479264
-0.00047892
-0.000478575
-0.000478228
-0.00047788
-0.000477531
-0.000477181
-0.000476829
-0.000476476
-0.000476122
-0.000475767
-0.00047541
-0.000475052
-0.000474693
-0.000474332
-0.00047397
-0.000473607
-0.000473243
-0.000472878
-0.000472511
-0.000472143
-0.000471774
-0.000471404
-0.000471032
-0.00047066
-0.000470286
-0.000469911
-0.000469534
-0.000469157
-0.000468778
-0.000468398
-0.000468017
-0.000467635
-0.000467251
-0.000466866
-0.000466481
-0.000466093
-0.000465705
-0.000465316
-0.000464925
-0.000464533
-0.00046414
-0.000463746
-0.000463351
-0.000462954
-0.000462557
-0.000462158
-0.000461758
-0.000461357
-0.000460954
-0.000460551
-0.000460146
-0.00045974
-0.000459333
-0.000458925
-0.000458516
-0.000458105
-0.000457694
-0.000457281
-0.000456867
-0.000456451
-0.000456035
-0.000455617
-0.000455199
-0.000454779
-0.000454358
-0.000453935
-0.000453512
-0.000453087
-0.000452661
-0.000452234
-0.000451806
-0.000451377
-0.000450946
-0.000450514
-0.000450081
-0.000449647
-0.000449211
-0.000448774
-0.000448337
-0.000447897
-0.000447457
-0.000447015
-0.000446573
-0.000446129
-0.000445683
-0.000445237
-0.000444789
-0.00044434
-0.000443889
-0.000443438
-0.000442985
-0.000442531
-0.000442075
-0.000441619
-0.000441161
-0.000440701
-0.000440241
-0.000439779
-0.000439315
-0.000438851
-0.000438385
-0.000437918
-0.000437449
-0.000436979
-0.000436507
-0.000436035
-0.000435561
-0.000435085
-0.000434608
-0.00043413
-0.00043365
-0.000433169
-0.000432686
-0.000432202
-0.000431717
-0.00043123
-0.000430741
-0.000430251
-0.00042976
-0.000429267
-0.000428772
-0.000428276
-0.000427779
-0.000427279
-0.000426779
-0.000426276
-0.000425772
-0.000425267
-0.00042476
-0.000424251
-0.000423741
-0.000423229
-0.000422715
-0.000422199
-0.000421682
-0.000421163
-0.000420643
-0.00042012
-0.000419596
-0.00041907
-0.000418542
-0.000418013
-0.000417481
-0.000416948
-0.000416413
-0.000415875
-0.000415336
-0.000414796
-0.000414253
-0.000413708
-0.000413161
-0.000412612
-0.000412061
-0.000411508
-0.000410953
-0.000410396
-0.000409836
-0.000409275
-0.000408711
-0.000408145
-0.000407577
-0.000407007
-0.000406434
-0.000405859
-0.000405282
-0.000404702
-0.00040412
-0.000403535
-0.000402948
-0.000402359
-0.000401767
-0.000401173
-0.000400575
-0.000399976
-0.000399373
-0.000398768
-0.000398161
-0.00039755
-0.000396937
-0.000396321
-0.000395702
-0.00039508
-0.000394456
-0.000393828
-0.000393197
-0.000392563
-0.000391926
-0.000391286
-0.000390643
-0.000389997
-0.000389347
-0.000388694
-0.000388038
-0.000387378
-0.000386715
-0.000386048
-0.000385377
-0.000384703
-0.000384026
-0.000383344
-0.000382659
-0.00038197
-0.000381277
-0.00038058
-0.000379879
-0.000379174
-0.000378465
-0.000377751
-0.000377033
-0.000376311
-0.000375585
-0.000374854
-0.000374118
-0.000373378
-0.000372633
-0.000371883
-0.000371128
-0.000370368
-0.000369603
-0.000368833
-0.000368058
-0.000367277
-0.000366491
-0.000365699
-0.000364902
-0.000364099
-0.00036329
-0.000362475
-0.000361654
-0.000360827
-0.000359994
-0.000359154
-0.000358308
-0.000357454
-0.000356595
-0.000355728
-0.000354854
-0.000353973
-0.000353084
-0.000352188
-0.000351284
-0.000350372
-0.000349453
-0.000348525
-0.000347589
-0.000346644
-0.000345691
-0.000344728
-0.000343757
-0.000342776
-0.000341785
-0.000340785
-0.000339775
-0.000338754
-0.000337723
-0.000336682
-0.000335629
-0.000334565
-0.00033349
-0.000332402
-0.000331303
-0.000330191
-0.000329066
-0.000327928
-0.000326777
-0.000325611
-0.000324432
-0.000323238
-0.000322029
-0.000320804
-0.000319563
-0.000318306
-0.000317032
-0.000315741
-0.000314432
-0.000313104
-0.000311757
-0.00031039
-0.000309003
-0.000307595
-0.000306165
-0.000304713
-0.000303237
-0.000301737
-0.000300212
-0.000298661
-0.000297084
-0.000295478
-0.000293843
-0.000292178
-0.000290481
-0.000288752
-0.000286988
-0.000285189
-0.000283352
-0.000281476
-0.00027956
-0.000277601
-0.000275596
-0.000273545
-0.000271444
-0.000269291
-0.000267083
-0.000264816
-0.000262488
-0.000260095
-0.000257632
-0.000255096
-0.000252481
-0.000249782
-0.000246993
-0.000244108
-0.000241118
-0.000238017
-0.000234793
-0.000231438
-0.000227938
-0.00022428
-0.000220448
-0.000216423
-0.000212183
-0.000207703
-0.000202951
-0.000197891
-0.000192475
-0.000186648
-0.000180335
-0.000173443
-0.000165847
-0.000157375
-0.000147784
-0.000136715
-0.000123607
-0.000107533
-8.68995e-05
-5.92893e-05
-2.35966e-05
)
;
    }
    bot_wall
    {
        type            calculated;
        value           uniform 0;
    }
    outlet
    {
        type            cyclic;
        value           nonuniform List<scalar> 
1000
(
2.35966e-05
5.92893e-05
8.68995e-05
0.000107533
0.000123607
0.000136715
0.000147784
0.000157375
0.000165847
0.000173443
0.000180335
0.000186648
0.000192475
0.000197891
0.000202952
0.000207703
0.000212183
0.000216423
0.000220448
0.00022428
0.000227938
0.000231438
0.000234793
0.000238017
0.000241118
0.000244108
0.000246993
0.000249782
0.000252481
0.000255096
0.000257632
0.000260095
0.000262488
0.000264816
0.000267083
0.000269291
0.000271444
0.000273545
0.000275596
0.000277601
0.00027956
0.000281476
0.000283352
0.000285189
0.000286988
0.000288752
0.000290481
0.000292178
0.000293843
0.000295478
0.000297084
0.000298661
0.000300212
0.000301737
0.000303237
0.000304713
0.000306165
0.000307595
0.000309003
0.00031039
0.000311757
0.000313104
0.000314432
0.000315741
0.000317032
0.000318306
0.000319563
0.000320804
0.000322029
0.000323238
0.000324432
0.000325611
0.000326777
0.000327928
0.000329066
0.000330191
0.000331303
0.000332402
0.00033349
0.000334565
0.000335629
0.000336682
0.000337724
0.000338754
0.000339775
0.000340785
0.000341785
0.000342776
0.000343757
0.000344728
0.000345691
0.000346644
0.000347589
0.000348525
0.000349453
0.000350373
0.000351284
0.000352188
0.000353084
0.000353973
0.000354854
0.000355728
0.000356595
0.000357454
0.000358308
0.000359154
0.000359994
0.000360827
0.000361654
0.000362475
0.00036329
0.000364099
0.000364902
0.000365699
0.000366491
0.000367277
0.000368058
0.000368833
0.000369603
0.000370368
0.000371128
0.000371883
0.000372633
0.000373378
0.000374118
0.000374854
0.000375585
0.000376311
0.000377034
0.000377751
0.000378465
0.000379174
0.000379879
0.00038058
0.000381277
0.00038197
0.000382659
0.000383344
0.000384026
0.000384703
0.000385377
0.000386048
0.000386715
0.000387378
0.000388038
0.000388694
0.000389347
0.000389997
0.000390643
0.000391286
0.000391927
0.000392563
0.000393197
0.000393828
0.000394456
0.00039508
0.000395702
0.000396321
0.000396937
0.00039755
0.000398161
0.000398768
0.000399373
0.000399976
0.000400575
0.000401173
0.000401767
0.000402359
0.000402948
0.000403535
0.00040412
0.000404702
0.000405282
0.000405859
0.000406434
0.000407007
0.000407577
0.000408145
0.000408711
0.000409275
0.000409836
0.000410396
0.000410953
0.000411508
0.000412061
0.000412612
0.000413161
0.000413708
0.000414253
0.000414796
0.000415336
0.000415876
0.000416413
0.000416948
0.000417481
0.000418013
0.000418542
0.00041907
0.000419596
0.00042012
0.000420643
0.000421163
0.000421682
0.000422199
0.000422715
0.000423229
0.000423741
0.000424251
0.00042476
0.000425267
0.000425772
0.000426276
0.000426779
0.000427279
0.000427779
0.000428276
0.000428772
0.000429267
0.00042976
0.000430251
0.000430741
0.00043123
0.000431717
0.000432202
0.000432686
0.000433169
0.00043365
0.00043413
0.000434608
0.000435085
0.000435561
0.000436035
0.000436507
0.000436979
0.000437449
0.000437918
0.000438385
0.000438851
0.000439315
0.000439779