/*--------------------------------*- C++ -*----------------------------------*\
| =========                 |                                                 |
| \\      /  F ield         | OpenFOAM: The Open Source CFD Toolbox           |
|  \\    /   O peration     | Version:  2406                                  |
|   \\  /    A nd           | Website:  www.openfoam.com                      |
|    \\/     M anipulation  |                                                 |
\*---------------------------------------------------------------------------*/
FoamFile
{
    version     2.0;
    format      ascii;
    arch        "LSB;label=32;scalar=64";
    class       volVectorField;
    location    "20.585";
    object      U;
}
// * * * * * * * * * * * * * * * * * * * * * * * * * * * * * * * * * * * * * //

dimensions      [0 1 -1 0 0 0 0];

internalField   nonuniform List<vector> 
1000
(
(0.235966 -4.91696e-18 0)
(0.592893 -8.13569e-18 0)
(0.868995 -8.30523e-18 0)
(1.07533 -7.95933e-18 0)
(1.23607 -7.86449e-18 0)
(1.36715 -7.85589e-18 0)
(1.47784 -7.89804e-18 0)
(1.57375 -7.87771e-18 0)
(1.65847 -7.65264e-18 0)
(1.73443 -7.45172e-18 0)
(1.80335 -7.36042e-18 0)
(1.86648 -7.3495e-18 0)
(1.92475 -7.34519e-18 0)
(1.97891 -7.37872e-18 0)
(2.02952 -7.55246e-18 0)
(2.07703 -7.71074e-18 0)
(2.12183 -7.78768e-18 0)
(2.16423 -7.81814e-18 0)
(2.20448 -7.84994e-18 0)
(2.2428 -7.8761e-18 0)
(2.27938 -7.89753e-18 0)
(2.31438 -7.91502e-18 0)
(2.34793 -7.92928e-18 0)
(2.38017 -7.94091e-18 0)
(2.41118 -7.95041e-18 0)
(2.44108 -7.95819e-18 0)
(2.46993 -7.96459e-18 0)
(2.49782 -7.9699e-18 0)
(2.52481 -7.97435e-18 0)
(2.55096 -7.97813e-18 0)
(2.57632 -7.98139e-18 0)
(2.60095 -7.98427e-18 0)
(2.62488 -7.98686e-18 0)
(2.64816 -7.98926e-18 0)
(2.67083 -7.99154e-18 0)
(2.69291 -7.99374e-18 0)
(2.71444 -7.9959e-18 0)
(2.73545 -7.99807e-18 0)
(2.75596 -8.00026e-18 0)
(2.77601 -8.00249e-18 0)
(2.7956 -8.00477e-18 0)
(2.81476 -8.00711e-18 0)
(2.83352 -8.0095e-18 0)
(2.85189 -8.01195e-18 0)
(2.86988 -8.01446e-18 0)
(2.88752 -8.01701e-18 0)
(2.90481 -8.01959e-18 0)
(2.92178 -8.0222e-18 0)
(2.93843 -8.02482e-18 0)
(2.95478 -8.02744e-18 0)
(2.97084 -8.03005e-18 0)
(2.98661 -8.03263e-18 0)
(3.00212 -8.03516e-18 0)
(3.01737 -8.03763e-18 0)
(3.03237 -8.04003e-18 0)
(3.04713 -8.04234e-18 0)
(3.06165 -8.04454e-18 0)
(3.07595 -8.04662e-18 0)
(3.09003 -8.04856e-18 0)
(3.1039 -8.05035e-18 0)
(3.11757 -8.05197e-18 0)
(3.13104 -8.05341e-18 0)
(3.14432 -8.05465e-18 0)
(3.15741 -8.05567e-18 0)
(3.17032 -8.05647e-18 0)
(3.18306 -8.05702e-18 0)
(3.19563 -8.05731e-18 0)
(3.20804 -8.05732e-18 0)
(3.22029 -8.05704e-18 0)
(3.23238 -8.05645e-18 0)
(3.24432 -8.05553e-18 0)
(3.25611 -8.05427e-18 0)
(3.26777 -8.05265e-18 0)
(3.27928 -8.05066e-18 0)
(3.29066 -8.04827e-18 0)
(3.30191 -8.04546e-18 0)
(3.31303 -8.04223e-18 0)
(3.32402 -8.03854e-18 0)
(3.3349 -8.03439e-18 0)
(3.34565 -8.02975e-18 0)
(3.35629 -8.02461e-18 0)
(3.36682 -8.01894e-18 0)
(3.37724 -8.01274e-18 0)
(3.38754 -8.00598e-18 0)
(3.39775 -7.99864e-18 0)
(3.40785 -7.99072e-18 0)
(3.41785 -7.9822e-18 0)
(3.42776 -7.97306e-18 0)
(3.43757 -7.96331e-18 0)
(3.44728 -7.95292e-18 0)
(3.45691 -7.94191e-18 0)
(3.46644 -7.93026e-18 0)
(3.47589 -7.91798e-18 0)
(3.48525 -7.90508e-18 0)
(3.49453 -7.89158e-18 0)
(3.50373 -7.87748e-18 0)
(3.51284 -7.86281e-18 0)
(3.52188 -7.84761e-18 0)
(3.53084 -7.8319e-18 0)
(3.53973 -7.81572e-18 0)
(3.54854 -7.79914e-18 0)
(3.55728 -7.78219e-18 0)
(3.56595 -7.76495e-18 0)
(3.57454 -7.74747e-18 0)
(3.58308 -7.72985e-18 0)
(3.59154 -7.71216e-18 0)
(3.59994 -7.69449e-18 0)
(3.60827 -7.67693e-18 0)
(3.61654 -7.65958e-18 0)
(3.62475 -7.64254e-18 0)
(3.6329 -7.62591e-18 0)
(3.64099 -7.60979e-18 0)
(3.64902 -7.59427e-18 0)
(3.65699 -7.57945e-18 0)
(3.66491 -7.5654e-18 0)
(3.67277 -7.5522e-18 0)
(3.68058 -7.53989e-18 0)
(3.68833 -7.52851e-18 0)
(3.69603 -7.51808e-18 0)
(3.70368 -7.50856e-18 0)
(3.71128 -7.49991e-18 0)
(3.71883 -7.49203e-18 0)
(3.72633 -7.48479e-18 0)
(3.73378 -7.47799e-18 0)
(3.74118 -7.47137e-18 0)
(3.74854 -7.4646e-18 0)
(3.75585 -7.45724e-18 0)
(3.76311 -7.44873e-18 0)
(3.77034 -7.43837e-18 0)
(3.77751 -7.42528e-18 0)
(3.78465 -7.40834e-18 0)
(3.79174 -7.38694e-18 0)
(3.79879 -7.35938e-18 0)
(3.8058 -7.32439e-18 0)
(3.81277 -7.27948e-18 0)
(3.8197 -7.22246e-18 0)
(3.82659 -7.15057e-18 0)
(3.83344 -7.06054e-18 0)
(3.84026 -6.95164e-18 0)
(3.84703 -6.77702e-18 0)
(3.85377 -6.87611e-18 0)
(3.86048 -6.9752e-18 0)
(3.86715 -6.80345e-18 0)
(3.87378 -6.69846e-18 0)
(3.88038 -6.61242e-18 0)
(3.88694 -6.5444e-18 0)
(3.89347 -6.49169e-18 0)
(3.89997 -6.45139e-18 0)
(3.90643 -6.42115e-18 0)
(3.91286 -6.39842e-18 0)
(3.91927 -6.38181e-18 0)
(3.92563 -6.36955e-18 0)
(3.93197 -6.36091e-18 0)
(3.93828 -6.35473e-18 0)
(3.94456 -6.35004e-18 0)
(3.9508 -6.34607e-18 0)
(3.95702 -6.3422e-18 0)
(3.96321 -6.3379e-18 0)
(3.96937 -6.33269e-18 0)
(3.9755 -6.32682e-18 0)
(3.98161 -6.31991e-18 0)
(3.98768 -6.31163e-18 0)
(3.99373 -6.30169e-18 0)
(3.99976 -6.28985e-18 0)
(4.00575 -6.27592e-18 0)
(4.01173 -6.2597e-18 0)
(4.01767 -6.24102e-18 0)
(4.02359 -6.21973e-18 0)
(4.02948 -6.19637e-18 0)
(4.03535 -6.16378e-18 0)
(4.0412 -6.21519e-18 0)
(4.04702 -6.42e-18 0)
(4.05282 -6.62155e-18 0)
(4.05859 -6.66212e-18 0)
(4.06434 -6.61246e-18 0)
(4.07007 -6.56589e-18 0)
(4.07577 -6.51531e-18 0)
(4.08145 -6.46125e-18 0)
(4.08711 -6.40355e-18 0)
(4.09275 -6.34207e-18 0)
(4.09836 -6.27669e-18 0)
(4.10396 -6.20733e-18 0)
(4.10953 -6.13399e-18 0)
(4.11508 -6.05673e-18 0)
(4.12061 -5.97568e-18 0)
(4.12612 -5.89103e-18 0)
(4.13161 -5.80312e-18 0)
(4.13708 -5.71241e-18 0)
(4.14253 -5.61959e-18 0)
(4.14796 -5.52558e-18 0)
(4.15336 -5.43158e-18 0)
(4.15876 -5.33849e-18 0)
(4.16413 -5.24819e-18 0)
(4.16948 -5.16226e-18 0)
(4.17481 -5.08272e-18 0)
(4.18013 -5.01201e-18 0)
(4.18542 -4.95375e-18 0)
(4.1907 -4.91169e-18 0)
(4.19596 -4.89128e-18 0)
(4.2012 -4.89901e-18 0)
(4.20643 -4.94347e-18 0)
(4.21163 -5.03193e-18 0)
(4.21682 -5.20205e-18 0)
(4.22199 -5.65169e-18 0)
(4.22715 -6.08527e-18 0)
(4.23229 -6.20425e-18 0)
(4.23741 -6.22997e-18 0)
(4.24251 -6.22233e-18 0)
(4.2476 -6.18691e-18 0)
(4.25267 -6.13213e-18 0)
(4.25772 -6.06418e-18 0)
(4.26276 -5.98766e-18 0)
(4.26779 -5.90601e-18 0)
(4.27279 -5.82118e-18 0)
(4.27779 -5.73505e-18 0)
(4.28276 -5.64895e-18 0)
(4.28772 -5.56381e-18 0)
(4.29267 -5.4803e-18 0)
(4.2976 -5.3988e-18 0)
(4.30251 -5.31953e-18 0)
(4.30741 -5.24256e-18 0)
(4.3123 -5.16787e-18 0)
(4.31717 -5.09541e-18 0)
(4.32202 -5.02565e-18 0)
(4.32686 -4.95842e-18 0)
(4.33169 -4.89355e-18 0)
(4.3365 -4.83088e-18 0)
(4.3413 -4.77027e-18 0)
(4.34608 -4.7116e-18 0)
(4.35085 -4.65474e-18 0)
(4.35561 -4.59959e-18 0)
(4.36035 -4.54606e-18 0)
(4.36507 -4.49408e-18 0)
(4.36979 -4.44358e-18 0)
(4.37449 -4.39452e-18 0)
(4.37918 -4.34683e-18 0)
(4.38385 -4.30048e-18 0)
(4.38851 -4.25543e-18 0)
(4.39315 -4.21165e-18 0)
(4.39779 -4.1691e-18 0)
(4.40241 -4.12775e-18 0)
(4.40701 -4.08756e-18 0)
(4.41161 -4.0485e-18 0)
(4.41619 -4.01053e-18 0)
(4.42075 -3.97361e-18 0)
(4.42531 -3.9377e-18 0)
(4.42985 -3.90274e-18 0)
(4.43438 -3.8687e-18 0)
(4.43889 -3.83614e-18 0)
(4.4434 -3.80445e-18 0)
(4.44789 -3.77363e-18 0)
(4.45237 -3.74364e-18 0)
(4.45683 -3.7144e-18 0)
(4.46129 -3.6864e-18 0)
(4.46573 -3.65954e-18 0)
(4.47015 -3.63381e-18 0)
(4.47457 -3.60859e-18 0)
(4.47897 -3.58386e-18 0)
(4.48337 -3.56014e-18 0)
(4.48774 -3.53733e-18 0)
(4.49211 -3.5154e-18 0)
(4.49647 -3.49431e-18 0)
(4.50081 -3.47401e-18 0)
(4.50514 -3.45445e-18 0)
(4.50946 -3.43559e-18 0)
(4.51376 -3.41739e-18 0)
(4.51806 -3.3998e-18 0)
(4.52234 -3.38279e-18 0)
(4.52661 -3.36631e-18 0)
(4.53087 -3.35034e-18 0)
(4.53512 -3.33483e-18 0)
(4.53935 -3.31976e-18 0)
(4.54358 -3.30511e-18 0)
(4.54779 -3.29083e-18 0)
(4.55199 -3.27692e-18 0)
(4.55617 -3.26334e-18 0)
(4.56035 -3.25007e-18 0)
(4.56451 -3.2371e-18 0)
(4.56867 -3.22441e-18 0)
(4.57281 -3.21198e-18 0)
(4.57694 -3.19979e-18 0)
(4.58105 -3.18784e-18 0)
(4.58516 -3.1761e-18 0)
(4.58925 -3.16456e-18 0)
(4.59333 -3.15322e-18 0)
(4.5974 -3.14205e-18 0)
(4.60146 -3.13106e-18 0)
(4.60551 -3.12023e-18 0)
(4.60954 -3.10956e-18 0)
(4.61357 -3.09902e-18 0)
(4.61758 -3.08863e-18 0)
(4.62158 -3.07836e-18 0)
(4.62557 -3.06822e-18 0)
(4.62954 -3.05819e-18 0)
(4.63351 -3.04826e-18 0)
(4.63746 -3.03845e-18 0)
(4.6414 -3.02872e-18 0)
(4.64533 -3.01909e-18 0)
(4.64925 -3.00955e-18 0)
(4.65316 -3.00008e-18 0)
(4.65705 -2.99069e-18 0)
(4.66093 -2.98138e-18 0)
(4.6648 -2.97212e-18 0)
(4.66866 -2.96294e-18 0)
(4.67251 -2.95381e-18 0)
(4.67635 -2.94473e-18 0)
(4.68017 -2.9357e-18 0)
(4.68398 -2.92672e-18 0)
(4.68778 -2.91779e-18 0)
(4.69157 -2.90889e-18 0)
(4.69534 -2.90003e-18 0)
(4.69911 -2.8912e-18 0)
(4.70286 -2.8824e-18 0)
(4.7066 -2.87362e-18 0)
(4.71032 -2.86487e-18 0)
(4.71404 -2.85614e-18 0)
(4.71774 -2.84743e-18 0)
(4.72143 -2.83873e-18 0)
(4.72511 -2.83005e-18 0)
(4.72878 -2.82137e-18 0)
(4.73243 -2.8127e-18 0)
(4.73607 -2.80404e-18 0)
(4.7397 -2.79538e-18 0)
(4.74332 -2.78672e-18 0)
(4.74693 -2.77806e-18 0)
(4.75052 -2.7694e-18 0)
(4.7541 -2.76073e-18 0)
(4.75767 -2.75206e-18 0)
(4.76122 -2.74338e-18 0)
(4.76476 -2.73469e-18 0)
(4.76829 -2.72599e-18 0)
(4.77181 -2.71727e-18 0)
(4.77531 -2.70854e-18 0)
(4.7788 -2.6998e-18 0)
(4.78228 -2.69104e-18 0)
(4.78575 -2.68226e-18 0)
(4.7892 -2.67347e-18 0)
(4.79264 -2.66465e-18 0)
(4.79607 -2.65582e-18 0)
(4.79948 -2.64696e-18 0)
(4.80288 -2.63808e-18 0)
(4.80627 -2.62918e-18 0)
(4.80964 -2.62026e-18 0)
(4.813 -2.61132e-18 0)
(4.81635 -2.60235e-18 0)
(4.81968 -2.59335e-18 0)
(4.823 -2.58434e-18 0)
(4.82631 -2.57529e-18 0)
(4.8296 -2.56622e-18 0)
(4.83288 -2.55713e-18 0)
(4.83614 -2.54801e-18 0)
(4.8394 -2.53887e-18 0)
(4.84263 -2.5297e-18 0)
(4.84586 -2.52051e-18 0)
(4.84907 -2.51129e-18 0)
(4.85226 -2.50205e-18 0)
(4.85545 -2.49278e-18 0)
(4.85861 -2.48348e-18 0)
(4.86177 -2.47417e-18 0)
(4.86491 -2.46483e-18 0)
(4.86803 -2.45546e-18 0)
(4.87114 -2.44607e-18 0)
(4.87424 -2.43666e-18 0)
(4.87732 -2.42723e-18 0)
(4.88038 -2.41777e-18 0)
(4.88343 -2.4083e-18 0)
(4.88647 -2.3988e-18 0)
(4.88949 -2.38928e-18 0)
(4.8925 -2.37974e-18 0)
(4.89549 -2.37018e-18 0)
(4.89847 -2.36061e-18 0)
(4.90143 -2.35101e-18 0)
(4.90437 -2.3414e-18 0)
(4.9073 -2.33177e-18 0)
(4.91022 -2.32213e-18 0)
(4.91312 -2.31247e-18 0)
(4.916 -2.30279e-18 0)
(4.91887 -2.2931e-18 0)
(4.92172 -2.2834e-18 0)
(4.92455 -2.27368e-18 0)
(4.92737 -2.26395e-18 0)
(4.93018 -2.25421e-18 0)
(4.93296 -2.24446e-18 0)
(4.93573 -2.2347e-18 0)
(4.93849 -2.22493e-18 0)
(4.94123 -2.21515e-18 0)
(4.94395 -2.20536e-18 0)
(4.94665 -2.19556e-18 0)
(4.94934 -2.18576e-18 0)
(4.95201 -2.17595e-18 0)
(4.95467 -2.16614e-18 0)
(4.9573 -2.15632e-18 0)
(4.95992 -2.1465e-18 0)
(4.96252 -2.13668e-18 0)
(4.96511 -2.12685e-18 0)
(4.96768 -2.11702e-18 0)
(4.97022 -2.10719e-18 0)
(4.97276 -2.09735e-18 0)
(4.97527 -2.08752e-18 0)
(4.97777 -2.07769e-18 0)
(4.98024 -2.06786e-18 0)
(4.9827 -2.05803e-18 0)
(4.98514 -2.0482e-18 0)
(4.98757 -2.03837e-18 0)
(4.98997 -2.02855e-18 0)
(4.99236 -2.01873e-18 0)
(4.99472 -2.00892e-18 0)
(4.99707 -1.99911e-18 0)
(4.9994 -1.98931e-18 0)
(5.00171 -1.97951e-18 0)
(5.004 -1.96972e-18 0)
(5.00627 -1.95993e-18 0)
(5.00852 -1.95016e-18 0)
(5.01076 -1.94039e-18 0)
(5.01297 -1.93062e-18 0)
(5.01516 -1.92087e-18 0)
(5.01733 -1.91113e-18 0)
(5.01948 -1.90139e-18 0)
(5.02162 -1.89167e-18 0)
(5.02373 -1.88195e-18 0)
(5.02582 -1.87225e-18 0)
(5.02789 -1.86255e-18 0)
(5.02994 -1.85287e-18 0)
(5.03197 -1.8432e-18 0)
(5.03397 -1.83354e-18 0)
(5.03596 -1.82389e-18 0)
(5.03793 -1.81426e-18 0)
(5.03987 -1.80464e-18 0)
(5.04179 -1.79503e-18 0)
(5.04369 -1.78544e-18 0)
(5.04557 -1.77586e-18 0)
(5.04742 -1.76629e-18 0)
(5.04926 -1.75674e-18 0)
(5.05107 -1.7472e-18 0)
(5.05286 -1.73768e-18 0)
(5.05462 -1.72817e-18 0)
(5.05637 -1.71867e-18 0)
(5.05809 -1.7092e-18 0)
(5.05978 -1.69974e-18 0)
(5.06146 -1.69029e-18 0)
(5.06311 -1.68086e-18 0)
(5.06473 -1.67145e-18 0)
(5.06634 -1.66205e-18 0)
(5.06792 -1.65268e-18 0)
(5.06947 -1.64331e-18 0)
(5.071 -1.63397e-18 0)
(5.07251 -1.62464e-18 0)
(5.07399 -1.61534e-18 0)
(5.07545 -1.60605e-18 0)
(5.07688 -1.59677e-18 0)
(5.07829 -1.58752e-18 0)
(5.07967 -1.57829e-18 0)
(5.08103 -1.56907e-18 0)
(5.08236 -1.55987e-18 0)
(5.08367 -1.5507e-18 0)
(5.08495 -1.54154e-18 0)
(5.0862 -1.5324e-18 0)
(5.08743 -1.52328e-18 0)
(5.08864 -1.51419e-18 0)
(5.08981 -1.50511e-18 0)
(5.09096 -1.49606e-18 0)
(5.09209 -1.48702e-18 0)
(5.09318 -1.47801e-18 0)
(5.09425 -1.46902e-18 0)
(5.0953 -1.46005e-18 0)
(5.09631 -1.4511e-18 0)
(5.0973 -1.44217e-18 0)
(5.09826 -1.43327e-18 0)
(5.09919 -1.42439e-18 0)
(5.1001 -1.41553e-18 0)
(5.10098 -1.4067e-18 0)
(5.10183 -1.39789e-18 0)
(5.10265 -1.3891e-18 0)
(5.10344 -1.38034e-18 0)
(5.10421 -1.3716e-18 0)
(5.10494 -1.36289e-18 0)
(5.10565 -1.3542e-18 0)
(5.10633 -1.34554e-18 0)
(5.10698 -1.3369e-18 0)
(5.1076 -1.32829e-18 0)
(5.1082 -1.31971e-18 0)
(5.10876 -1.31115e-18 0)
(5.1093 -1.30262e-18 0)
(5.1098 -1.29411e-18 0)
(5.11028 -1.28564e-18 0)
(5.11072 -1.27719e-18 0)
(5.11114 -1.26877e-18 0)
(5.11153 -1.26037e-18 0)
(5.11189 -1.25201e-18 0)
(5.11222 -1.24367e-18 0)
(5.11251 -1.23537e-18 0)
(5.11278 -1.22709e-18 0)
(5.11302 -1.21884e-18 0)
(5.11323 -1.21062e-18 0)
(5.11341 -1.20244e-18 0)
(5.11356 -1.19428e-18 0)
(5.11368 -1.18616e-18 0)
(5.11377 -1.17805e-18 0)
(5.11383 -1.16996e-18 0)
(5.11386 -1.1619e-18 0)
(5.11386 -1.15386e-18 0)
(5.11383 -1.14584e-18 0)
(5.11377 -1.13785e-18 0)
(5.11368 -1.12988e-18 0)
(5.11356 -1.12193e-18 0)
(5.11341 -1.11401e-18 0)
(5.11323 -1.10613e-18 0)
(5.11302 -1.09828e-18 0)
(5.11278 -1.09046e-18 0)
(5.11251 -1.08268e-18 0)
(5.11222 -1.07494e-18 0)
(5.11189 -1.06723e-18 0)
(5.11153 -1.05955e-18 0)
(5.11114 -1.05191e-18 0)
(5.11072 -1.04431e-18 0)
(5.11028 -1.03674e-18 0)
(5.1098 -1.02921e-18 0)
(5.1093 -1.02171e-18 0)
(5.10876 -1.01425e-18 0)
(5.1082 -1.00683e-18 0)
(5.1076 -9.99445e-19 0)
(5.10698 -9.92096e-19 0)
(5.10633 -9.84784e-19 0)
(5.10565 -9.7751e-19 0)
(5.10494 -9.70273e-19 0)
(5.10421 -9.63073e-19 0)
(5.10344 -9.55912e-19 0)
(5.10265 -9.48788e-19 0)
(5.10183 -9.41702e-19 0)
(5.10098 -9.34655e-19 0)
(5.1001 -9.27646e-19 0)
(5.09919 -9.20675e-19 0)
(5.09826 -9.13743e-19 0)
(5.0973 -9.06849e-19 0)
(5.09631 -8.99994e-19 0)
(5.0953 -8.93177e-19 0)
(5.09425 -8.864e-19 0)
(5.09318 -8.79661e-19 0)
(5.09209 -8.72961e-19 0)
(5.09096 -8.663e-19 0)
(5.08981 -8.59678e-19 0)
(5.08864 -8.53095e-19 0)
(5.08743 -8.46551e-19 0)
(5.08621 -8.40046e-19 0)
(5.08495 -8.3358e-19 0)
(5.08367 -8.27153e-19 0)
(5.08236 -8.20765e-19 0)
(5.08103 -8.14416e-19 0)
(5.07967 -8.08106e-19 0)
(5.07829 -8.01835e-19 0)
(5.07688 -7.95602e-19 0)
(5.07545 -7.89409e-19 0)
(5.07399 -7.83254e-19 0)
(5.07251 -7.77138e-19 0)
(5.071 -7.71061e-19 0)
(5.06947 -7.65022e-19 0)
(5.06792 -7.59022e-19 0)
(5.06634 -7.5306e-19 0)
(5.06473 -7.47136e-19 0)
(5.06311 -7.41251e-19 0)
(5.06146 -7.35404e-19 0)
(5.05978 -7.29595e-19 0)
(5.05809 -7.23823e-19 0)
(5.05637 -7.1809e-19 0)
(5.05462 -7.12394e-19 0)
(5.05286 -7.06736e-19 0)
(5.05107 -7.01116e-19 0)
(5.04926 -6.95533e-19 0)
(5.04742 -6.89987e-19 0)
(5.04557 -6.84478e-19 0)
(5.04369 -6.79006e-19 0)
(5.04179 -6.73571e-19 0)
(5.03987 -6.68173e-19 0)
(5.03793 -6.62811e-19 0)
(5.03596 -6.57486e-19 0)
(5.03397 -6.52197e-19 0)
(5.03197 -6.46944e-19 0)
(5.02994 -6.41727e-19 0)
(5.02789 -6.36545e-19 0)
(5.02582 -6.314e-19 0)
(5.02373 -6.2629e-19 0)
(5.02162 -6.21215e-19 0)
(5.01949 -6.16175e-19 0)
(5.01733 -6.11171e-19 0)
(5.01516 -6.06201e-19 0)
(5.01297 -6.01266e-19 0)
(5.01076 -5.96366e-19 0)
(5.00852 -5.915e-19 0)
(5.00627 -5.86668e-19 0)
(5.004 -5.8187e-19 0)
(5.00171 -5.77106e-19 0)
(4.9994 -5.72376e-19 0)
(4.99707 -5.67679e-19 0)
(4.99472 -5.63016e-19 0)
(4.99236 -5.58385e-19 0)
(4.98997 -5.53788e-19 0)
(4.98757 -5.49224e-19 0)
(4.98515 -5.44692e-19 0)
(4.9827 -5.40193e-19 0)
(4.98024 -5.35727e-19 0)
(4.97777 -5.31292e-19 0)
(4.97527 -5.26889e-19 0)
(4.97276 -5.22519e-19 0)
(4.97023 -5.1818e-19 0)
(4.96768 -5.13872e-19 0)
(4.96511 -5.09596e-19 0)
(4.96252 -5.05351e-19 0)
(4.95992 -5.01137e-19 0)
(4.9573 -4.96954e-19 0)
(4.95467 -4.92801e-19 0)
(4.95201 -4.88679e-19 0)
(4.94934 -4.84587e-19 0)
(4.94665 -4.80525e-19 0)
(4.94395 -4.76494e-19 0)
(4.94123 -4.72492e-19 0)
(4.93849 -4.6852e-19 0)
(4.93574 -4.64577e-19 0)
(4.93296 -4.60664e-19 0)
(4.93018 -4.56779e-19 0)
(4.92737 -4.52924e-19 0)
(4.92455 -4.49097e-19 0)
(4.92172 -4.453e-19 0)
(4.91887 -4.4153e-19 0)
(4.916 -4.37789e-19 0)
(4.91312 -4.34076e-19 0)
(4.91022 -4.30391e-19 0)
(4.9073 -4.26734e-19 0)
(4.90437 -4.23105e-19 0)
(4.90143 -4.19503e-19 0)
(4.89847 -4.15928e-19 0)
(4.89549 -4.12381e-19 0)
(4.8925 -4.0886e-19 0)
(4.88949 -4.05367e-19 0)
(4.88647 -4.019e-19 0)
(4.88343 -3.9846e-19 0)
(4.88038 -3.95046e-19 0)
(4.87732 -3.91658e-19 0)
(4.87424 -3.88296e-19 0)
(4.87114 -3.84961e-19 0)
(4.86803 -3.81651e-19 0)
(4.86491 -3.78366e-19 0)
(4.86177 -3.75108e-19 0)
(4.85861 -3.71874e-19 0)
(4.85545 -3.68666e-19 0)
(4.85226 -3.65482e-19 0)
(4.84907 -3.62323e-19 0)
(4.84586 -3.59189e-19 0)
(4.84264 -3.5608e-19 0)
(4.8394 -3.52995e-19 0)
(4.83615 -3.49934e-19 0)
(4.83288 -3.46897e-19 0)
(4.8296 -3.43885e-19 0)
(4.82631 -3.40895e-19 0)
(4.823 -3.3793e-19 0)
(4.81968 -3.34988e-19 0)
(4.81635 -3.32069e-19 0)
(4.813 -3.29174e-19 0)
(4.80964 -3.26302e-19 0)
(4.80627 -3.23452e-19 0)
(4.80288 -3.20625e-19 0)
(4.79948 -3.17821e-19 0)
(4.79607 -3.1504e-19 0)
(4.79264 -3.1228e-19 0)
(4.7892 -3.09543e-19 0)
(4.78575 -3.06828e-19 0)
(4.78228 -3.04135e-19 0)
(4.7788 -3.01463e-19 0)
(4.77531 -2.98813e-19 0)
(4.77181 -2.96185e-19 0)
(4.76829 -2.93578e-19 0)
(4.76476 -2.90992e-19 0)
(4.76122 -2.88427e-19 0)
(4.75767 -2.85883e-19 0)
(4.7541 -2.8336e-19 0)
(4.75052 -2.80857e-19 0)
(4.74693 -2.78375e-19 0)
(4.74332 -2.75914e-19 0)
(4.7397 -2.73472e-19 0)
(4.73607 -2.71051e-19 0)
(4.73243 -2.68649e-19 0)
(4.72878 -2.66268e-19 0)
(4.72511 -2.63906e-19 0)
(4.72143 -2.61564e-19 0)
(4.71774 -2.59241e-19 0)
(4.71404 -2.56937e-19 0)
(4.71032 -2.54653e-19 0)
(4.7066 -2.52387e-19 0)
(4.70286 -2.50141e-19 0)
(4.69911 -2.47913e-19 0)
(4.69534 -2.45704e-19 0)
(4.69157 -2.43514e-19 0)
(4.68778 -2.41342e-19 0)
(4.68398 -2.39188e-19 0)
(4.68017 -2.37052e-19 0)
(4.67635 -2.34934e-19 0)
(4.67251 -2.32835e-19 0)
(4.66866 -2.30753e-19 0)
(4.66481 -2.28688e-19 0)
(4.66093 -2.26641e-19 0)
(4.65705 -2.24612e-19 0)
(4.65316 -2.226e-19 0)
(4.64925 -2.20605e-19 0)
(4.64533 -2.18626e-19 0)
(4.6414 -2.16665e-19 0)
(4.63746 -2.14721e-19 0)
(4.63351 -2.12793e-19 0)
(4.62954 -2.10882e-19 0)
(4.62557 -2.08988e-19 0)
(4.62158 -2.07109e-19 0)
(4.61758 -2.05247e-19 0)
(4.61357 -2.03401e-19 0)
(4.60954 -2.01571e-19 0)
(4.60551 -1.99756e-19 0)
(4.60146 -1.97958e-19 0)
(4.5974 -1.96175e-19 0)
(4.59333 -1.94407e-19 0)
(4.58925 -1.92655e-19 0)
(4.58516 -1.90919e-19 0)
(4.58105 -1.89197e-19 0)
(4.57694 -1.8749e-19 0)
(4.57281 -1.85799e-19 0)
(4.56867 -1.84122e-19 0)
(4.56451 -1.8246e-19 0)
(4.56035 -1.80812e-19 0)
(4.55617 -1.79179e-19 0)
(4.55199 -1.77561e-19 0)
(4.54779 -1.75957e-19 0)
(4.54358 -1.74366e-19 0)
(4.53935 -1.7279e-19 0)
(4.53512 -1.71228e-19 0)
(4.53087 -1.6968e-19 0)
(4.52661 -1.68146e-19 0)
(4.52234 -1.66625e-19 0)
(4.51806 -1.65118e-19 0)
(4.51377 -1.63624e-19 0)
(4.50946 -1.62143e-19 0)
(4.50514 -1.60676e-19 0)
(4.50081 -1.59222e-19 0)
(4.49647 -1.57781e-19 0)
(4.49211 -1.56353e-19 0)
(4.48774 -1.54937e-19 0)
(4.48337 -1.53535e-19 0)
(4.47897 -1.52145e-19 0)
(4.47457 -1.50768e-19 0)
(4.47015 -1.49403e-19 0)
(4.46573 -1.4805e-19 0)
(4.46129 -1.4671e-19 0)
(4.45683 -1.45382e-19 0)
(4.45237 -1.44066e-19 0)
(4.44789 -1.42761e-19 0)
(4.4434 -1.41469e-19 0)
(4.43889 -1.40189e-19 0)
(4.43438 -1.3892e-19 0)
(4.42985 -1.37662e-19 0)
(4.42531 -1.36417e-19 0)
(4.42075 -1.35182e-19 0)
(4.41619 -1.33959e-19 0)
(4.41161 -1.32748e-19 0)
(4.40701 -1.31547e-19 0)
(4.40241 -1.30357e-19 0)
(4.39779 -1.29179e-19 0)
(4.39315 -1.28011e-19 0)
(4.38851 -1.26854e-19 0)
(4.38385 -1.25707e-19 0)
(4.37918 -1.24572e-19 0)
(4.37449 -1.23446e-19 0)
(4.36979 -1.22332e-19 0)
(4.36507 -1.21227e-19 0)
(4.36035 -1.20133e-19 0)
(4.35561 -1.19049e-19 0)
(4.35085 -1.17975e-19 0)
(4.34608 -1.16911e-19 0)
(4.3413 -1.15857e-19 0)
(4.3365 -1.14813e-19 0)
(4.33169 -1.13779e-19 0)
(4.32686 -1.12754e-19 0)
(4.32202 -1.11739e-19 0)
(4.31717 -1.10734e-19 0)
(4.3123 -1.09738e-19 0)
(4.30741 -1.08751e-19 0)
(4.30251 -1.07774e-19 0)
(4.2976 -1.06805e-19 0)
(4.29267 -1.05846e-19 0)
(4.28772 -1.04896e-19 0)
(4.28276 -1.03955e-19 0)
(4.27779 -1.03023e-19 0)
(4.27279 -1.021e-19 0)
(4.26779 -1.01185e-19 0)
(4.26276 -1.00279e-19 0)
(4.25772 -9.93823e-20 0)
(4.25267 -9.84936e-20 0)
(4.2476 -9.76133e-20 0)
(4.24251 -9.67415e-20 0)
(4.23741 -9.5878e-20 0)
(4.23229 -9.50227e-20 0)
(4.22715 -9.41756e-20 0)
(4.22199 -9.33366e-20 0)
(4.21682 -9.25056e-20 0)
(4.21163 -9.16826e-20 0)
(4.20643 -9.08675e-20 0)
(4.2012 -9.00603e-20 0)
(4.19596 -8.92608e-20 0)
(4.1907 -8.84689e-20 0)
(4.18542 -8.76848e-20 0)
(4.18013 -8.69081e-20 0)
(4.17481 -8.6139e-20 0)
(4.16948 -8.53773e-20 0)
(4.16413 -8.4623e-20 0)
(4.15875 -8.38759e-20 0)
(4.15336 -8.31361e-20 0)
(4.14796 -8.24035e-20 0)
(4.14253 -8.16779e-20 0)
(4.13708 -8.09594e-20 0)
(4.13161 -8.02479e-20 0)
(4.12612 -7.95433e-20 0)
(4.12061 -7.88456e-20 0)
(4.11508 -7.81547e-20 0)
(4.10953 -7.74705e-20 0)
(4.10396 -7.6793e-20 0)
(4.09836 -7.6122e-20 0)
(4.09275 -7.54577e-20 0)
(4.08711 -7.47998e-20 0)
(4.08145 -7.41484e-20 0)
(4.07577 -7.35034e-20 0)
(4.07007 -7.28646e-20 0)
(4.06434 -7.22322e-20 0)
(4.05859 -7.16059e-20 0)
(4.05282 -7.09858e-20 0)
(4.04702 -7.03718e-20 0)
(4.0412 -6.97638e-20 0)
(4.03535 -6.91618e-20 0)
(4.02948 -6.85658e-20 0)
(4.02359 -6.79756e-20 0)
(4.01767 -6.73912e-20 0)
(4.01173 -6.68126e-20 0)
(4.00575 -6.62397e-20 0)
(3.99976 -6.56724e-20 0)
(3.99373 -6.51108e-20 0)
(3.98768 -6.45547e-20 0)
(3.98161 -6.40041e-20 0)
(3.9755 -6.34589e-20 0)
(3.96937 -6.29192e-20 0)
(3.96321 -6.23848e-20 0)
(3.95702 -6.18557e-20 0)
(3.9508 -6.13318e-20 0)
(3.94456 -6.08131e-20 0)
(3.93828 -6.02996e-20 0)
(3.93197 -5.97911e-20 0)
(3.92563 -5.92877e-20 0)
(3.91926 -5.87893e-20 0)
(3.91286 -5.82959e-20 0)
(3.90643 -5.78073e-20 0)
(3.89997 -5.73236e-20 0)
(3.89347 -5.68447e-20 0)
(3.88694 -5.63706e-20 0)
(3.88038 -5.59011e-20 0)
(3.87378 -5.54363e-20 0)
(3.86715 -5.49762e-20 0)
(3.86048 -5.45206e-20 0)
(3.85377 -5.40695e-20 0)
(3.84703 -5.3623e-20 0)
(3.84026 -5.31808e-20 0)
(3.83344 -5.2743e-20 0)
(3.82659 -5.23096e-20 0)
(3.8197 -5.18805e-20 0)
(3.81277 -5.14556e-20 0)
(3.8058 -5.1035e-20 0)
(3.79879 -5.06185e-20 0)
(3.79174 -5.02061e-20 0)
(3.78465 -4.97978e-20 0)
(3.77751 -4.93936e-20 0)
(3.77033 -4.89933e-20 0)
(3.76311 -4.8597e-20 0)
(3.75585 -4.82046e-20 0)
(3.74854 -4.78161e-20 0)
(3.74118 -4.74314e-20 0)
(3.73378 -4.70504e-20 0)
(3.72633 -4.66732e-20 0)
(3.71883 -4.62997e-20 0)
(3.71128 -4.59299e-20 0)
(3.70368 -4.55637e-20 0)
(3.69603 -4.5201e-20 0)
(3.68833 -4.48419e-20 0)
(3.68058 -4.44863e-20 0)
(3.67277 -4.41341e-20 0)
(3.66491 -4.37854e-20 0)
(3.65699 -4.344e-20 0)
(3.64902 -4.30979e-20 0)
(3.64099 -4.27592e-20 0)
(3.6329 -4.24237e-20 0)
(3.62475 -4.20913e-20 0)
(3.61654 -4.17622e-20 0)
(3.60827 -4.14362e-20 0)
(3.59994 -4.11133e-20 0)
(3.59154 -4.07934e-20 0)
(3.58308 -4.04765e-20 0)
(3.57454 -4.01626e-20 0)
(3.56595 -3.98516e-20 0)
(3.55728 -3.95435e-20 0)
(3.54854 -3.92383e-20 0)
(3.53973 -3.89358e-20 0)
(3.53084 -3.86362e-20 0)
(3.52188 -3.83392e-20 0)
(3.51284 -3.80449e-20 0)
(3.50372 -3.77533e-20 0)
(3.49453 -3.74643e-20 0)
(3.48525 -3.71778e-20 0)
(3.47589 -3.68939e-20 0)
(3.46644 -3.66124e-20 0)
(3.45691 -3.63334e-20 0)
(3.44728 -3.60568e-20 0)
(3.43757 -3.57825e-20 0)
(3.42776 -3.55105e-20 0)
(3.41785 -3.52408e-20 0)
(3.40785 -3.49733e-20 0)
(3.39775 -3.4708e-20 0)
(3.38754 -3.44449e-20 0)
(3.37723 -3.41838e-20 0)
(3.36682 -3.39248e-20 0)
(3.35629 -3.36677e-20 0)
(3.34565 -3.34127e-20 0)
(3.3349 -3.31595e-20 0)
(3.32402 -3.29082e-20 0)
(3.31303 -3.26587e-20 0)
(3.30191 -3.2411e-20 0)
(3.29066 -3.21649e-20 0)
(3.27928 -3.19206e-20 0)
(3.26777 -3.16778e-20 0)
(3.25611 -3.14366e-20 0)
(3.24432 -3.11969e-20 0)
(3.23238 -3.09587e-20 0)
(3.22029 -3.07218e-20 0)
(3.20804 -3.04863e-20 0)
(3.19563 -3.02521e-20 0)
(3.18306 -3.0019e-20 0)
(3.17032 -2.97872e-20 0)
(3.15741 -2.95564e-20 0)
(3.14432 -2.93267e-20 0)
(3.13104 -2.90979e-20 0)
(3.11757 -2.887e-20 0)
(3.1039 -2.86429e-20 0)
(3.09003 -2.84166e-20 0)
(3.07595 -2.81909e-20 0)
(3.06165 -2.79659e-20 0)
(3.04713 -2.77413e-20 0)
(3.03237 -2.75172e-20 0)
(3.01737 -2.72934e-20 0)
(3.00212 -2.70698e-20 0)
(2.98661 -2.68464e-20 0)
(2.97084 -2.66231e-20 0)
(2.95478 -2.63996e-20 0)
(2.93843 -2.61761e-20 0)
(2.92178 -2.59522e-20 0)
(2.90481 -2.57279e-20 0)
(2.88752 -2.55031e-20 0)
(2.86988 -2.52777e-20 0)
(2.85189 -2.50514e-20 0)
(2.83352 -2.48242e-20 0)
(2.81476 -2.45958e-20 0)
(2.7956 -2.43662e-20 0)
(2.77601 -2.41351e-20 0)
(2.75596 -2.39024e-20 0)
(2.73545 -2.36678e-20 0)
(2.71444 -2.34311e-20 0)
(2.69291 -2.31921e-20 0)
(2.67083 -2.29505e-20 0)
(2.64816 -2.27061e-20 0)
(2.62488 -2.24586e-20 0)
(2.60095 -2.22075e-20 0)
(2.57632 -2.19527e-20 0)
(2.55096 -2.16936e-20 0)
(2.52481 -2.143e-20 0)
(2.49782 -2.11612e-20 0)
(2.46993 -2.08869e-20 0)
(2.44108 -2.06064e-20 0)
(2.41118 -2.03192e-20 0)
(2.38017 -2.00244e-20 0)
(2.34793 -1.97214e-20 0)
(2.31438 -1.94092e-20 0)
(2.27938 -1.90868e-20 0)
(2.2428 -1.87531e-20 0)
(2.20448 -1.84067e-20 0)
(2.16423 -1.80461e-20 0)
(2.12183 -1.76694e-20 0)
(2.07703 -1.72745e-20 0)
(2.02951 -1.68589e-20 0)
(1.97891 -1.64194e-20 0)
(1.92475 -1.59523e-20 0)
(1.86648 -1.54527e-20 0)
(1.80335 -1.49147e-20 0)
(1.73443 -1.43306e-20 0)
(1.65847 -1.36901e-20 0)
(1.57375 -1.2979e-20 0)
(1.47784 -1.21774e-20 0)
(1.36715 -1.12559e-20 0)
(1.23607 -1.01683e-20 0)
(1.07533 -8.83859e-21 0)
(0.868995 -7.1365e-21 0)
(0.592893 -4.86438e-21 0)
(0.235966 -1.93359e-21 0)
)
;

boundaryField
{
    top_wall
    {
        type            noSlip;
    }
    inlet
    {
        type            cyclic;
    }
    bot_wall
    {
        type            noSlip;
    }
    outlet
    {
        type            cyclic;
    }
    frontAndBack
    {
        type            empty;
    }
}


// ************************************************************************* //
