/*--------------------------------*- C++ -*----------------------------------*\
| =========                 |                                                 |
| \\      /  F ield         | OpenFOAM: The Open Source CFD Toolbox           |
|  \\    /   O peration     | Version:  2406                                  |
|   \\  /    A nd           | Website:  www.openfoam.com                      |
|    \\/     M anipulation  |                                                 |
\*---------------------------------------------------------------------------*/
FoamFile
{
    version     2.0;
    format      ascii;
    arch        "LSB;label=32;scalar=64";
    class       volScalarField;
    location    "20.77";
    object      k;
}
// * * * * * * * * * * * * * * * * * * * * * * * * * * * * * * * * * * * * * //

dimensions      [0 2 -2 0 0 0 0];

internalField   nonuniform List<scalar> 
1000
(
0.0017089
0.00180267
0.0106785
0.0347636
0.0720155
0.110812
0.143605
0.169307
0.189295
0.204817
0.216946
0.22652
0.234168
0.240351
0.245411
0.249599
0.253106
0.25607
0.258596
0.260758
0.262615
0.264214
0.265595
0.266789
0.267821
0.268713
0.269484
0.270147
0.270717
0.271204
0.271617
0.271965
0.272254
0.272491
0.272682
0.27283
0.272939
0.273015
0.273059
0.273075
0.273065
0.273031
0.272976
0.272901
0.272808
0.272699
0.272575
0.272436
0.272285
0.272122
0.271949
0.271765
0.271572
0.271371
0.271161
0.270945
0.270721
0.270492
0.270256
0.270016
0.26977
0.26952
0.269266
0.269007
0.268746
0.26848
0.268212
0.267941
0.267667
0.26739
0.267112
0.266831
0.266549
0.266264
0.265978
0.26569
0.265401
0.265111
0.26482
0.264527
0.264233
0.263939
0.263644
0.263347
0.263051
0.262753
0.262455
0.262157
0.261858
0.261559
0.261259
0.260959
0.260658
0.260358
0.260057
0.259756
0.259455
0.259154
0.258852
0.258551
0.258249
0.257947
0.257646
0.257344
0.257042
0.25674
0.256438
0.256137
0.255835
0.255533
0.255231
0.25493
0.254628
0.254327
0.254025
0.253724
0.253422
0.253121
0.25282
0.252518
0.252217
0.251916
0.251615
0.251313
0.251012
0.250711
0.25041
0.250109
0.249808
0.249507
0.249206
0.248905
0.248604
0.248303
0.248002
0.247701
0.247399
0.247098
0.246797
0.246495
0.246194
0.245892
0.245591
0.245289
0.244987
0.244685
0.244383
0.24408
0.243778
0.243475
0.243172
0.242869
0.242566
0.242262
0.241959
0.241655
0.241351
0.241046
0.240742
0.240437
0.240131
0.239826
0.23952
0.239214
0.238907
0.238601
0.238293
0.237986
0.237678
0.23737
0.237061
0.236752
0.236442
0.236132
0.235822
0.235511
0.2352
0.234888
0.234576
0.234263
0.23395
0.233636
0.233322
0.233007
0.232692
0.232376
0.23206
0.231742
0.231425
0.231106
0.230786
0.230464
0.23014
0.229814
0.229486
0.229156
0.228823
0.228487
0.22815
0.22781
0.227467
0.227122
0.226775
0.226426
0.226074
0.22572
0.225364
0.225005
0.224644
0.224281
0.223916
0.223548
0.223178
0.222805
0.22243
0.222053
0.221674
0.221292
0.220908
0.220521
0.220132
0.21974
0.219347
0.21895
0.218552
0.21815
0.217747
0.217341
0.216932
0.216521
0.216107
0.215691
0.215273
0.214852
0.214428
0.214002
0.213573
0.213142
0.212708
0.212272
0.211833
0.211391
0.210947
0.2105
0.21005
0.209598
0.209144
0.208686
0.208226
0.207764
0.207298
0.20683
0.20636
0.205886
0.20541
0.204932
0.20445
0.203966
0.20348
0.20299
0.202498
0.202003
0.201505
0.201005
0.200502
0.199996
0.199487
0.198976
0.198462
0.197945
0.197425
0.196903
0.196378
0.19585
0.195319
0.194785
0.194249
0.19371
0.193168
0.192623
0.192076
0.191526
0.190972
0.190416
0.189858
0.189296
0.188732
0.188165
0.187595
0.187022
0.186446
0.185868
0.185286
0.184702
0.184115
0.183525
0.182933
0.182337
0.181739
0.181138
0.180534
0.179927
0.179317
0.178705
0.17809
0.177471
0.17685
0.176227
0.1756
0.17497
0.174338
0.173703
0.173065
0.172424
0.17178
0.171134
0.170485
0.169833
0.169178
0.16852
0.167859
0.167196
0.16653
0.165861
0.16519
0.164515
0.163838
0.163158
0.162476
0.16179
0.161102
0.160411
0.159717
0.159021
0.158321
0.157619
0.156913
0.156204
0.155491
0.154775
0.154055
0.153332
0.152606
0.151878
0.151148
0.150417
0.149686
0.148955
0.148226
0.1475
0.146779
0.146065
0.145359
0.144663
0.143978
0.143303
0.142636
0.141971
0.141307
0.140644
0.139981
0.13932
0.13866
0.138
0.137342
0.136685
0.136029
0.135374
0.134721
0.134069
0.133418
0.132769
0.132121
0.131475
0.13083
0.130187
0.129546
0.128906
0.128268
0.127632
0.126997
0.126365
0.125734
0.125105
0.124479
0.123854
0.123232
0.122611
0.121993
0.121377
0.120764
0.120153
0.119544
0.118937
0.118333
0.117732
0.117133
0.116536
0.115942
0.115351
0.114763
0.114178
0.113595
0.113015
0.112438
0.111865
0.111294
0.110726
0.110161
0.1096
0.109042
0.108487
0.107935
0.107387
0.106842
0.106301
0.105763
0.105229
0.104698
0.104171
0.103648
0.103129
0.102613
0.102102
0.101594
0.101091
0.100591
0.100096
0.0996046
0.0991176
0.0986349
0.0981565
0.0976826
0.0972131
0.0967481
0.0962876
0.0958318
0.0953806
0.0949341
0.0944924
0.0940555
0.0936234
0.0931963
0.0927742
0.092357
0.091945
0.091538
0.0911362
0.0907396
0.0903482
0.0899622
0.0895814
0.0892064
0.088838
0.0884761
0.088121
0.0877726
0.0874311
0.0870965
0.0867689
0.0864483
0.0861348
0.0858286
0.0855295
0.0852378
0.0849535
0.0846766
0.0844072
0.0841453
0.083891
0.0836445
0.0834056
0.0831745
0.0829512
0.0827357
0.0825282
0.0823287
0.0821371
0.0819536
0.0817782
0.0816109
0.0814517
0.0813008
0.081158
0.0810236
0.0808974
0.0807795
0.0806699
0.0805687
0.0804759
0.0803915
0.0803155
0.0802479
0.0801887
0.080138
0.0800958
0.0800619
0.0800366
0.0800197
0.0800112
0.0800112
0.0800197
0.0800366
0.0800619
0.0800957
0.080138
0.0801887
0.0802479
0.0803155
0.0803915
0.0804759
0.0805687
0.0806699
0.0807794
0.0808973
0.0810235
0.0811579
0.0813007
0.0814516
0.0816108
0.0817781
0.0819535
0.082137
0.0823285
0.0825281
0.0827356
0.082951
0.0831743
0.0834054
0.0836443
0.0838909
0.0841451
0.084407
0.0846764
0.0849533
0.0852376
0.0855293
0.0858283
0.0861346
0.086448
0.0867686
0.0870962
0.0874308
0.0877723
0.0881207
0.0884758
0.0888377
0.0892061
0.0895811
0.0899619
0.0903479
0.0907393
0.0911359
0.0915377
0.0919446
0.0923567
0.0927738
0.093196
0.0936231
0.0940551
0.094492
0.0949337
0.0953802
0.0958314
0.0962872
0.0967477
0.0972127
0.0976822
0.0981561
0.0986345
0.0991172
0.0996042
0.100095
0.100591
0.10109
0.101594
0.102101
0.102613
0.103128
0.103648
0.104171
0.104698
0.105228
0.105762
0.1063
0.106842
0.107386
0.107935
0.108486
0.109041
0.109599
0.110161
0.110725
0.111293
0.111864
0.112438
0.113015
0.113595
0.114177
0.114763
0.115351
0.115942
0.116536
0.117132
0.117731
0.118333
0.118937
0.119543
0.120152
0.120763
0.121377
0.121993
0.122611
0.123231
0.123854
0.124478
0.125105
0.125734
0.126364
0.126997
0.127631
0.128267
0.128905
0.129545
0.130187
0.13083
0.131474
0.132121
0.132769
0.133418
0.134068
0.13472
0.135374
0.136029
0.136684
0.137342
0.138
0.138659
0.13932
0.139981
0.140643
0.141306
0.141971
0.142635
0.143303
0.143978
0.144663
0.145359
0.146064
0.146779
0.1475
0.148225
0.148955
0.149685
0.150417
0.151148
0.151878
0.152605
0.153331
0.154055
0.154775
0.155491
0.156203
0.156913
0.157618
0.158321
0.15902
0.159717
0.160411
0.161102
0.16179
0.162475
0.163158
0.163838
0.164515
0.165189
0.165861
0.16653
0.167196
0.167859
0.16852
0.169177
0.169832
0.170484
0.171134
0.17178
0.172424
0.173065
0.173703
0.174338
0.17497
0.1756
0.176226
0.17685
0.177471
0.178089
0.178705
0.179317
0.179927
0.180534
0.181138
0.181739
0.182337
0.182933
0.183525
0.184115
0.184702
0.185286
0.185868
0.186446
0.187022
0.187595
0.188165
0.188732
0.189296
0.189858
0.190416
0.190972
0.191525
0.192076
0.192623
0.193168
0.19371
0.194249
0.194785
0.195319
0.19585
0.196378
0.196903
0.197425
0.197945
0.198462
0.198976
0.199487
0.199996
0.200502
0.201005
0.201505
0.202003
0.202498
0.20299
0.20348
0.203966
0.204451
0.204932
0.205411
0.205887
0.20636
0.20683
0.207298
0.207764
0.208226
0.208686
0.209144
0.209598
0.21005
0.2105
0.210947
0.211391
0.211833
0.212272
0.212708
0.213142
0.213573
0.214002
0.214428
0.214852
0.215273
0.215692
0.216108
0.216521
0.216932
0.217341
0.217747
0.218151
0.218552
0.21895
0.219347
0.219741
0.220132
0.220521
0.220908
0.221292
0.221674
0.222053
0.22243
0.222805
0.223178
0.223548
0.223916
0.224281
0.224645
0.225006
0.225364
0.22572
0.226074
0.226426
0.226776
0.227123
0.227467
0.22781
0.22815
0.228488
0.228823
0.229156
0.229486
0.229815
0.230141
0.230464
0.230786
0.231106
0.231425
0.231743
0.23206
0.232376
0.232692
0.233007
0.233322
0.233636
0.23395
0.234263
0.234576
0.234888
0.2352
0.235511
0.235822
0.236133
0.236443
0.236752
0.237061
0.23737
0.237678
0.237986
0.238294
0.238601
0.238908
0.239214
0.23952
0.239826
0.240132
0.240437
0.240742
0.241046
0.241351
0.241655
0.241959
0.242263
0.242566
0.242869
0.243172
0.243475
0.243778
0.24408
0.244383
0.244685
0.244987
0.245289
0.245591
0.245892
0.246194
0.246495
0.246797
0.247098
0.247399
0.247701
0.248002
0.248303
0.248604
0.248905
0.249206
0.249507
0.249808
0.250109
0.25041
0.250711
0.251012
0.251313
0.251615
0.251916
0.252217
0.252518
0.25282
0.253121
0.253422
0.253724
0.254025
0.254327
0.254628
0.25493
0.255231
0.255533
0.255835
0.256137
0.256438
0.25674
0.257042
0.257344
0.257645
0.257947
0.258249
0.25855
0.258852
0.259153
0.259455
0.259756
0.260057
0.260358
0.260658
0.260959
0.261259
0.261558
0.261858
0.262157
0.262455
0.262753
0.263051
0.263347
0.263643
0.263939
0.264233
0.264527
0.264819
0.265111
0.265401
0.26569
0.265978
0.266264
0.266548
0.266831
0.267112
0.26739
0.267667
0.267941
0.268212
0.26848
0.268745
0.269007
0.269266
0.26952
0.26977
0.270016
0.270256
0.270492
0.270721
0.270944
0.271161
0.27137
0.271572
0.271765
0.271948
0.272122
0.272285
0.272436
0.272574
0.272699
0.272808
0.272901
0.272976
0.273031
0.273064
0.273075
0.273059
0.273015
0.272939
0.272829
0.272681
0.272491
0.272254
0.271964
0.271617
0.271203
0.270716
0.270147
0.269483
0.268713
0.267821
0.266789
0.265595
0.264214
0.262614
0.260757
0.258596
0.25607
0.253105
0.249599
0.24541
0.240351
0.234168
0.22652
0.216945
0.204816
0.189294
0.169307
0.143605
0.110812
0.0720154
0.0347635
0.0106785
0.00180266
0.0017089
)
;

boundaryField
{
    top_wall
    {
        type            kLowReWallFunction;
        value           uniform 2.22225e-07;
    }
    inlet
    {
        type            cyclic;
    }
    bot_wall
    {
        type            kLowReWallFunction;
        value           uniform 2.22226e-07;
    }
    outlet
    {
        type            cyclic;
    }
    frontAndBack
    {
        type            empty;
    }
}


// ************************************************************************* //
