/*--------------------------------*- C++ -*----------------------------------*\
| =========                 |                                                 |
| \\      /  F ield         | OpenFOAM: The Open Source CFD Toolbox           |
|  \\    /   O peration     | Version:  2406                                  |
|   \\  /    A nd           | Website:  www.openfoam.com                      |
|    \\/     M anipulation  |                                                 |
\*---------------------------------------------------------------------------*/
FoamFile
{
    version     2.0;
    format      ascii;
    arch        "LSB;label=32;scalar=64";
    class       volScalarField;
    location    "20.77";
    object      nut;
}
// * * * * * * * * * * * * * * * * * * * * * * * * * * * * * * * * * * * * * //

dimensions      [0 2 -1 0 0 0 0];

internalField   nonuniform List<scalar> 
1000
(
2.67012e-08
1.62176e-07
2.69943e-06
1.66044e-05
5.20197e-05
0.000108093
0.000177887
0.000251989
0.000332855
0.000419757
0.000511599
0.000607467
0.000706634
0.000808495
0.000912445
0.0010176
0.00112213
0.0012248
0.00132794
0.00143145
0.00153522
0.00163918
0.00174326
0.00184741
0.00195158
0.00205572
0.0021598
0.0022638
0.00236767
0.0024714
0.00257497
0.00267836
0.00278154
0.00288451
0.00298725
0.00308975
0.003192
0.00329399
0.0033957
0.00349712
0.00359826
0.0036991
0.00379964
0.00389986
0.00399976
0.00409935
0.0041986
0.00429752
0.00439609
0.00449432
0.00459221
0.00468974
0.00478691
0.00488372
0.00498016
0.00507623
0.00517193
0.00526725
0.00536219
0.00545675
0.00555092
0.0056447
0.00573808
0.00583107
0.00592365
0.00601583
0.00610761
0.00619897
0.00628992
0.00638046
0.00647058
0.00656028
0.00664955
0.0067384
0.00682681
0.0069148
0.00700235
0.00708947
0.00717614
0.00726237
0.00734816
0.0074335
0.00751839
0.00760283
0.00768681
0.00777034
0.00785341
0.00793602
0.00801816
0.00809984
0.00818105
0.00826179
0.00834206
0.00842185
0.00850117
0.00858001
0.00865837
0.00873624
0.00881363
0.00889054
0.00896695
0.00904288
0.00911831
0.00919325
0.00926769
0.00934164
0.00941509
0.00948804
0.00956048
0.00963242
0.00970385
0.00977478
0.0098452
0.00991511
0.00998451
0.0100534
0.0101218
0.0101896
0.0102569
0.0103238
0.0103901
0.0104558
0.0105211
0.0105858
0.01065
0.0107137
0.0107769
0.0108395
0.0109016
0.0109632
0.0110242
0.0110847
0.0111447
0.0112041
0.011263
0.0113214
0.0113792
0.0114365
0.0114933
0.0115495
0.0116052
0.0116604
0.011715
0.011769
0.0118226
0.0118756
0.011928
0.0119799
0.0120313
0.0120821
0.0121324
0.0121821
0.0122313
0.01228
0.0123281
0.0123756
0.0124227
0.0124692
0.0125151
0.0125605
0.0126053
0.0126497
0.0126934
0.0127366
0.0127793
0.0128215
0.0128631
0.0129041
0.0129446
0.0129846
0.013024
0.0130629
0.0131013
0.0131391
0.0131764
0.0132131
0.0132493
0.013285
0.0133201
0.0133547
0.0133887
0.0134223
0.0134552
0.0134877
0.0135196
0.013551
0.0135818
0.0136122
0.013638
0.0136423
0.0136327
0.013615
0.0135936
0.0135713
0.01355
0.013531
0.0135149
0.0135019
0.0134921
0.0134851
0.0134808
0.0134789
0.0134789
0.0134807
0.0134838
0.0134881
0.0134932
0.0134989
0.0135051
0.0135116
0.0135183
0.013525
0.0135317
0.0135383
0.0135447
0.0135509
0.0135569
0.0135627
0.0135681
0.0135733
0.0135782
0.0135827
0.013587
0.0135909
0.0135945
0.0135978
0.0136008
0.0136034
0.0136058
0.0136078
0.0136096
0.013611
0.0136121
0.0136129
0.0136135
0.0136137
0.0136136
0.0136133
0.0136127
0.0136117
0.0136105
0.0136091
0.0136073
0.0136053
0.0136029
0.0136004
0.0135975
0.0135944
0.013591
0.0135873
0.0135834
0.0135792
0.0135748
0.0135701
0.0135651
0.0135599
0.0135545
0.0135488
0.0135428
0.0135366
0.0135301
0.0135234
0.0135164
0.0135092
0.0135018
0.0134941
0.0134862
0.013478
0.0134696
0.013461
0.0134521
0.013443
0.0134337
0.0134241
0.0134143
0.0134042
0.013394
0.0133835
0.0133728
0.0133619
0.0133507
0.0133393
0.0133277
0.0133159
0.0133038
0.0132916
0.0132791
0.0132664
0.0132535
0.0132404
0.0132271
0.0132135
0.0131998
0.0131858
0.0131717
0.0131573
0.0131428
0.013128
0.013113
0.0130979
0.0130825
0.0130669
0.0130512
0.0130352
0.0130191
0.0130027
0.0129862
0.0129695
0.0129526
0.0129355
0.0129182
0.0129008
0.0128832
0.0128654
0.0128474
0.0128293
0.0128111
0.0127927
0.0127742
0.0127556
0.0127368
0.012718
0.0126992
0.0126802
0.0126612
0.0126421
0.0126229
0.0126035
0.0125838
0.0125638
0.0125432
0.0125218
0.0124994
0.0124756
0.0124502
0.0124227
0.0123929
0.0123604
0.0123253
0.0122879
0.0122489
0.0122095
0.0121719
0.0121385
0.0121126
0.0120982
0.0120999
0.0121232
0.0121739
0.0122578
0.0123799
0.0125427
0.0127443
0.0129747
0.0132104
0.0134074
0.0134949
0.0134732
0.0134513
0.0134291
0.0134066
0.0133838
0.0133608
0.0133374
0.0133138
0.0132899
0.0132657
0.0132413
0.0132167
0.0131918
0.0131666
0.0131412
0.0131156
0.0130898
0.0130638
0.0130376
0.0130112
0.0129845
0.0129577
0.0129308
0.0129036
0.0128763
0.0128489
0.0128213
0.0127935
0.0127657
0.0127377
0.0127096
0.0126814
0.0126531
0.0126247
0.0125962
0.0125677
0.0125391
0.0125104
0.0124817
0.0124529
0.0124241
0.0123953
0.0123665
0.0123376
0.0123088
0.0122799
0.0122511
0.0122223
0.0121935
0.0121648
0.0121361
0.0121075
0.0120789
0.0120504
0.012022
0.0119937
0.0119655
0.0119374
0.0119094
0.0118815
0.0118538
0.0118262
0.0117987
0.0117714
0.0117443
0.0117173
0.0116905
0.0116639
0.0116375
0.0116113
0.0115853
0.0115595
0.011534
0.0115086
0.0114836
0.0114588
0.0114342
0.0114099
0.0113859
0.0113622
0.0113387
0.0113156
0.0112928
0.0112702
0.0112481
0.0112262
0.0112047
0.0111835
0.0111627
0.0111423
0.0111222
0.0111026
0.0110833
0.0110644
0.0110459
0.0110278
0.01101
0.0109925
0.0109753
0.0109584
0.0109418
0.0109255
0.0109095
0.0108938
0.0108785
0.0108635
0.0108488
0.0108345
0.0108205
0.0108069
0.0107936
0.0107807
0.0107681
0.0107559
0.0107441
0.0107326
0.0107215
0.0107108
0.0107005
0.0106905
0.010681
0.0106718
0.010663
0.0106547
0.0106467
0.0106391
0.0106319
0.0106252
0.0106188
0.0106129
0.0106073
0.0106022
0.0105975
0.0105932
0.0105894
0.0105859
0.0105829
0.0105803
0.0105782
0.0105765
0.0105752
0.0105743
0.0105739
0.0105739
0.0105743
0.0105752
0.0105765
0.0105782
0.0105803
0.0105829
0.0105859
0.0105894
0.0105932
0.0105975
0.0106022
0.0106073
0.0106129
0.0106188
0.0106252
0.0106319
0.0106391
0.0106467
0.0106547
0.010663
0.0106718
0.010681
0.0106905
0.0107005
0.0107108
0.0107215
0.0107326
0.0107441
0.0107559
0.0107681
0.0107807
0.0107936
0.0108069
0.0108205
0.0108345
0.0108488
0.0108635
0.0108785
0.0108938
0.0109095
0.0109254
0.0109417
0.0109583
0.0109753
0.0109925
0.01101
0.0110278
0.0110459
0.0110644
0.0110832
0.0111025
0.0111222
0.0111423
0.0111627
0.0111835
0.0112047
0.0112262
0.011248
0.0112702
0.0112927
0.0113155
0.0113387
0.0113621
0.0113858
0.0114099
0.0114341
0.0114587
0.0114835
0.0115086
0.0115339
0.0115595
0.0115852
0.0116112
0.0116374
0.0116638
0.0116904
0.0117172
0.0117442
0.0117714
0.0117987
0.0118261
0.0118537
0.0118815
0.0119093
0.0119373
0.0119655
0.0119937
0.012022
0.0120504
0.0120789
0.0121074
0.0121361
0.0121647
0.0121935
0.0122222
0.012251
0.0122799
0.0123087
0.0123376
0.0123664
0.0123952
0.0124241
0.0124529
0.0124816
0.0125103
0.012539
0.0125676
0.0125962
0.0126246
0.012653
0.0126813
0.0127095
0.0127376
0.0127656
0.0127935
0.0128212
0.0128488
0.0128763
0.0129036
0.0129307
0.0129577
0.0129845
0.0130111
0.0130375
0.0130638
0.0130898
0.0131156
0.0131412
0.0131666
0.0131917
0.0132166
0.0132413
0.0132657
0.0132898
0.0133137
0.0133374
0.0133607
0.0133838
0.0134066
0.0134291
0.0134513
0.0134732
0.0134948
0.0134075
0.0132106
0.012975
0.0127445
0.0125429
0.01238
0.0122579
0.012174
0.0121232
0.0120999
0.0120981
0.0121125
0.0121384
0.0121718
0.0122094
0.0122487
0.0122878
0.0123252
0.0123603
0.0123927
0.0124226
0.0124501
0.0124756
0.0124993
0.0125217
0.0125431
0.0125637
0.0125837
0.0126034
0.0126228
0.012642
0.0126611
0.0126801
0.0126991
0.0127179
0.0127368
0.0127555
0.0127741
0.0127926
0.012811
0.0128292
0.0128473
0.0128653
0.0128831
0.0129007
0.0129182
0.0129354
0.0129525
0.0129694
0.0129861
0.0130026
0.013019
0.0130351
0.0130511
0.0130668
0.0130824
0.0130978
0.0131129
0.0131279
0.0131427
0.0131572
0.0131716
0.0131857
0.0131997
0.0132134
0.013227
0.0132403
0.0132534
0.0132663
0.013279
0.0132915
0.0133037
0.0133158
0.0133276
0.0133392
0.0133506
0.0133618
0.0133727
0.0133834
0.0133939
0.0134042
0.0134142
0.013424
0.0134336
0.0134429
0.013452
0.0134609
0.0134695
0.0134779
0.0134861
0.013494
0.0135017
0.0135091
0.0135163
0.0135233
0.01353
0.0135365
0.0135427
0.0135487
0.0135544
0.0135598
0.0135651
0.01357
0.0135747
0.0135791
0.0135833
0.0135872
0.0135909
0.0135943
0.0135974
0.0136003
0.0136029
0.0136052
0.0136072
0.013609
0.0136105
0.0136117
0.0136126
0.0136132
0.0136136
0.0136136
0.0136134
0.0136129
0.013612
0.0136109
0.0136095
0.0136078
0.0136057
0.0136034
0.0136007
0.0135977
0.0135944
0.0135908
0.0135869
0.0135827
0.0135781
0.0135732
0.0135681
0.0135626
0.0135569
0.0135509
0.0135446
0.0135382
0.0135316
0.0135249
0.0135182
0.0135115
0.013505
0.0134989
0.0134931
0.013488
0.0134838
0.0134806
0.0134789
0.0134788
0.0134807
0.013485
0.013492
0.0135018
0.0135148
0.0135309
0.0135499
0.0135711
0.0135935
0.0136149
0.0136326
0.0136422
0.013638
0.0136121
0.0135818
0.0135509
0.0135196
0.0134876
0.0134552
0.0134222
0.0133887
0.0133546
0.0133201
0.0132849
0.0132493
0.0132131
0.0131763
0.0131391
0.0131013
0.0130629
0.013024
0.0129846
0.0129446
0.0129041
0.012863
0.0128214
0.0127793
0.0127366
0.0126934
0.0126496
0.0126053
0.0125605
0.0125151
0.0124691
0.0124226
0.0123756
0.0123281
0.0122799
0.0122313
0.0121821
0.0121324
0.0120821
0.0120312
0.0119799
0.011928
0.0118755
0.0118225
0.011769
0.0117149
0.0116603
0.0116052
0.0115495
0.0114933
0.0114365
0.0113792
0.0113214
0.011263
0.0112041
0.0111447
0.0110847
0.0110242
0.0109631
0.0109016
0.0108395
0.0107768
0.0107137
0.01065
0.0105858
0.0105211
0.0104558
0.01039
0.0103238
0.0102569
0.0101896
0.0101217
0.0100534
0.00998449
0.0099151
0.00984519
0.00977477
0.00970384
0.00963241
0.00956047
0.00948803
0.00941508
0.00934163
0.00926769
0.00919324
0.0091183
0.00904287
0.00896694
0.00889053
0.00881362
0.00873623
0.00865836
0.00858
0.00850116
0.00842185
0.00834205
0.00826178
0.00818105
0.00809984
0.00801816
0.00793601
0.00785341
0.00777034
0.00768681
0.00760283
0.00751839
0.0074335
0.00734816
0.00726237
0.00717614
0.00708946
0.00700235
0.0069148
0.00682681
0.00673839
0.00664955
0.00656027
0.00647058
0.00638046
0.00628992
0.00619897
0.0061076
0.00601583
0.00592365
0.00583106
0.00573808
0.0056447
0.00555092
0.00545675
0.00536219
0.00526725
0.00517193
0.00507623
0.00498016
0.00488372
0.00478691
0.00468974
0.00459221
0.00449432
0.00439609
0.00429751
0.0041986
0.00409934
0.00399976
0.00389986
0.00379963
0.0036991
0.00359826
0.00349712
0.00339569
0.00329398
0.003192
0.00308975
0.00298725
0.00288451
0.00278154
0.00267836
0.00257497
0.0024714
0.00236767
0.00226379
0.0021598
0.00205572
0.00195158
0.00184741
0.00174326
0.00163918
0.00153522
0.00143145
0.00132794
0.0012248
0.00112213
0.00101759
0.000912445
0.000808494
0.000706634
0.000607466
0.000511599
0.000419757
0.000332855
0.000251989
0.000177887
0.000108093
5.20196e-05
1.66043e-05
2.69943e-06
1.62175e-07
2.67011e-08
)
;

boundaryField
{
    top_wall
    {
        type            nutLowReWallFunction;
        value           uniform 0;
    }
    inlet
    {
        type            cyclic;
    }
    bot_wall
    {
        type            nutLowReWallFunction;
        value           uniform 0;
    }
    outlet
    {
        type            cyclic;
    }
    frontAndBack
    {
        type            empty;
    }
}


// ************************************************************************* //
