/*--------------------------------*- C++ -*----------------------------------*\
| =========                 |                                                 |
| \\      /  F ield         | OpenFOAM: The Open Source CFD Toolbox           |
|  \\    /   O peration     | Version:  2406                                  |
|   \\  /    A nd           | Website:  www.openfoam.com                      |
|    \\/     M anipulation  |                                                 |
\*---------------------------------------------------------------------------*/
FoamFile
{
    version     2.0;
    format      ascii;
    arch        "LSB;label=32;scalar=64";
    class       volScalarField;
    location    "20.77";
    object      omega;
}
// * * * * * * * * * * * * * * * * * * * * * * * * * * * * * * * * * * * * * //

dimensions      [0 0 -1 0 0 0 0];

internalField   nonuniform List<scalar> 
1000
(
64001.1
11115.5
3955.83
2093.64
1384.39
1025.15
807.038
660.159
554.516
475.219
413.872
365.293
326.086
293.934
267.203
244.708
225.558
209.071
194.734
182.163
171.06
161.187
152.355
144.412
137.233
130.715
124.772
119.334
114.339
109.737
105.483
101.542
97.8788
94.467
91.2817
88.3014
85.5073
82.8829
80.4133
78.0855
75.888
73.8101
71.8426
69.9772
68.2061
66.5226
64.9204
63.3939
61.938
60.548
59.2196
57.9489
56.7322
55.5664
54.4483
53.3751
52.3443
51.3535
50.4003
49.4829
48.5992
47.7475
46.9261
46.1335
45.3682
44.629
43.9144
43.2234
42.5549
41.9077
41.281
40.6738
40.0852
39.5144
38.9608
38.4234
37.9017
37.3951
36.9028
36.4243
35.9591
35.5067
35.0665
34.6381
34.221
33.8149
33.4193
33.0338
32.6581
32.2918
31.9346
31.5862
31.2463
30.9146
30.5907
30.2746
29.9658
29.6642
29.3695
29.0816
28.8001
28.5249
28.2558
27.9927
27.7353
27.4834
27.237
26.9958
26.7596
26.5285
26.3021
26.0804
25.8632
25.6504
25.4419
25.2376
25.0374
24.8411
24.6486
24.4599
24.2748
24.0933
23.9153
23.7406
23.5692
23.401
23.2359
23.0739
22.9148
22.7587
22.6054
22.4548
22.307
22.1618
22.0191
21.879
21.7413
21.606
21.4731
21.3425
21.2141
21.0879
20.9638
20.8419
20.722
20.6041
20.4881
20.3741
20.262
20.1517
20.0432
19.9365
19.8315
19.7283
19.6266
19.5266
19.4282
19.3314
19.2361
19.1423
19.05
18.9591
18.8696
18.7815
18.6948
18.6095
18.5254
18.4426
18.3611
18.2808
18.2018
18.1239
18.0473
17.9717
17.8973
17.8241
17.7519
17.6807
17.6107
17.5417
17.4736
17.4066
17.3406
17.2756
17.2114
17.1483
17.086
17.0247
16.9642
16.9045
16.8456
16.7873
16.7296
16.6725
16.6159
16.5599
16.5045
16.4496
16.3952
16.3413
16.288
16.2352
16.1829
16.1311
16.0798
16.029
15.9787
15.9288
15.8795
15.8306
15.7822
15.7342
15.6867
15.6396
15.5929
15.5467
15.5008
15.4554
15.4104
15.3657
15.3214
15.2775
15.2339
15.1907
15.1478
15.1053
15.0631
15.0212
14.9797
14.9384
14.8975
14.8568
14.8165
14.7764
14.7366
14.697
14.6577
14.6187
14.5799
14.5414
14.5031
14.4651
14.4272
14.3896
14.3522
14.315
14.278
14.2413
14.2047
14.1683
14.132
14.096
14.0601
14.0244
13.9889
13.9535
13.9183
13.8832
13.8483
13.8135
13.7788
13.7443
13.7099
13.6756
13.6414
13.6074
13.5734
13.5396
13.5058
13.4722
13.4386
13.4052
13.3718
13.3385
13.3053
13.2721
13.2391
13.2061
13.1731
13.1402
13.1074
13.0746
13.0419
13.0092
12.9765
12.9439
12.9113
12.8788
12.8463
12.8138
12.7813
12.7488
12.7164
12.6839
12.6515
12.6191
12.5867
12.5543
12.5218
12.4894
12.457
12.4245
12.3921
12.3596
12.3271
12.2945
12.262
12.2294
12.1968
12.1641
12.1314
12.0987
12.0659
12.0331
12.0002
11.9673
11.9343
11.9012
11.8681
11.835
11.8018
11.7685
11.7351
11.7017
11.6682
11.6346
11.6009
11.5671
11.5333
11.4994
11.4654
11.4313
11.3971
11.3627
11.3283
11.2938
11.2591
11.2243
11.1893
11.1541
11.1188
11.0834
11.048
11.0127
10.9776
10.9425
10.9076
10.8728
10.8382
10.8038
10.7696
10.7355
10.7018
10.6683
10.6351
10.6022
10.5696
10.5373
10.505
10.473
10.4412
10.4096
10.3781
10.3469
10.3158
10.2849
10.2542
10.2236
10.1933
10.1631
10.1331
10.1032
10.0735
10.044
10.0147
9.98552
9.95651
9.92764
9.89894
9.87038
9.84198
9.81372
9.78561
9.75765
9.72982
9.70213
9.67458
9.64716
9.61987
9.59271
9.56568
9.53877
9.51199
9.48533
9.45878
9.43235
9.40604
9.37984
9.35375
9.32777
9.3019
9.27613
9.25047
9.22491
9.19945
9.17409
9.14883
9.12367
9.09861
9.07364
9.04876
9.02398
8.99929
8.9747
8.95019
8.92578
8.90146
8.87723
8.85309
8.82904
8.80508
8.78121
8.75744
8.73375
8.71015
8.68665
8.66323
8.63991
8.61668
8.59355
8.57051
8.54756
8.52471
8.50196
8.4793
8.45675
8.43429
8.41193
8.38967
8.36752
8.34547
8.32352
8.30167
8.27994
8.2583
8.23678
8.21536
8.19405
8.17286
8.15177
8.13079
8.10991
8.08922
8.06883
8.04877
8.02903
8.00964
7.99058
7.97187
7.95352
7.93552
7.91789
7.90064
7.88375
7.86726
7.85114
7.83543
7.82011
7.8052
7.79069
7.7766
7.76294
7.74969
7.73688
7.72451
7.71257
7.70108
7.69003
7.67944
7.66931
7.65964
7.65043
7.64169
7.63342
7.62562
7.61831
7.61147
7.60511
7.59923
7.59385
7.58895
7.58453
7.58061
7.57718
7.57424
7.57179
7.56983
7.56836
7.56738
7.56689
7.56689
7.56738
7.56836
7.56983
7.57178
7.57423
7.57718
7.58061
7.58453
7.58894
7.59384
7.59923
7.6051
7.61146
7.6183
7.62562
7.63342
7.64168
7.65043
7.65963
7.66931
7.67944
7.69003
7.70107
7.71257
7.7245
7.73688
7.74969
7.76293
7.7766
7.79069
7.80519
7.8201
7.83542
7.85114
7.86725
7.88375
7.90063
7.91789
7.93552
7.95352
7.97187
7.99058
8.00963
8.02903
8.04876
8.06883
8.08921
8.10991
8.13079
8.15176
8.17285
8.19405
8.21536
8.23678
8.2583
8.27993
8.30167
8.32352
8.34547
8.36752
8.38967
8.41193
8.43429
8.45675
8.47931
8.50196
8.52471
8.54756
8.57051
8.59355
8.61669
8.63991
8.66324
8.68665
8.71015
8.73375
8.75744
8.78122
8.80509
8.82905
8.8531
8.87724
8.90147
8.92579
8.9502
8.9747
8.9993
9.02399
9.04877
9.07364
9.09861
9.12368
9.14884
9.1741
9.19946
9.22491
9.25047
9.27614
9.3019
9.32778
9.35376
9.37985
9.40605
9.43236
9.45879
9.48533
9.512
9.53878
9.56569
9.59272
9.61988
9.64717
9.67459
9.70214
9.72983
9.75765
9.78562
9.81373
9.84199
9.87039
9.89895
9.92765
9.95652
9.98553
10.0147
10.0441
10.0736
10.1032
10.1331
10.1631
10.1933
10.2236
10.2542
10.2849
10.3158
10.3469
10.3781
10.4096
10.4412
10.473
10.5051
10.5373
10.5697
10.6022
10.6351
10.6683
10.7018
10.7356
10.7696
10.8038
10.8383
10.8729
10.9076
10.9426
10.9776
11.0128
11.048
11.0834
11.1188
11.1541
11.1893
11.2243
11.2591
11.2938
11.3283
11.3628
11.3971
11.4313
11.4654
11.4994
11.5333
11.5672
11.6009
11.6346
11.6682
11.7017
11.7351
11.7685
11.8018
11.835
11.8682
11.9013
11.9343
11.9673
12.0002
12.0331
12.066
12.0987
12.1315
12.1642
12.1968
12.2294
12.262
12.2946
12.3271
12.3596
12.3921
12.4246
12.457
12.4895
12.5219
12.5543
12.5867
12.6192
12.6516
12.684
12.7164
12.7489
12.7813
12.8138
12.8463
12.8788
12.9114
12.944
12.9766
13.0092
13.0419
13.0747
13.1075
13.1403
13.1732
13.2061
13.2391
13.2722
13.3054
13.3386
13.3719
13.4053
13.4387
13.4723
13.5059
13.5397
13.5735
13.6074
13.6415
13.6757
13.7099
13.7443
13.7789
13.8135
13.8483
13.8833
13.9184
13.9536
13.989
14.0245
14.0602
14.0961
14.1321
14.1683
14.2047
14.2413
14.2781
14.3151
14.3523
14.3897
14.4273
14.4651
14.5032
14.5415
14.58
14.6188
14.6578
14.6971
14.7366
14.7764
14.8165
14.8569
14.8976
14.9385
14.9798
15.0213
15.0632
15.1054
15.1479
15.1908
15.234
15.2775
15.3215
15.3658
15.4104
15.4555
15.5009
15.5468
15.593
15.6397
15.6868
15.7343
15.7823
15.8307
15.8796
15.9289
15.9787
16.029
16.0798
16.1311
16.1829
16.2352
16.2881
16.3414
16.3953
16.4496
16.5046
16.56
16.616
16.6726
16.7297
16.7874
16.8456
16.9046
16.9643
17.0247
17.0861
17.1483
17.2115
17.2756
17.3407
17.4067
17.4737
17.5417
17.6107
17.6808
17.7519
17.8241
17.8974
17.9718
18.0473
18.124
18.2019
18.2809
18.3612
18.4427
18.5255
18.6095
18.6949
18.7816
18.8697
18.9591
19.05
19.1424
19.2362
19.3315
19.4283
19.5267
19.6267
19.7283
19.8316
19.9366
20.0433
20.1518
20.2621
20.3742
20.4882
20.6041
20.722
20.8419
20.9639
21.0879
21.2141
21.3425
21.4732
21.6061
21.7414
21.879
22.0192
22.1618
22.307
22.4549
22.6054
22.7587
22.9149
23.0739
23.2359
23.401
23.5692
23.7406
23.9153
24.0933
24.2749
24.4599
24.6486
24.8411
25.0374
25.2377
25.442
25.6504
25.8632
26.0804
26.3021
26.5285
26.7597
26.9958
27.237
27.4834
27.7353
27.9927
28.2559
28.5249
28.8001
29.0816
29.3695
29.6642
29.9658
30.2746
30.5908
30.9146
31.2463
31.5862
31.9346
32.2918
32.6581
33.0338
33.4193
33.8149
34.221
34.6381
35.0665
35.5067
35.9591
36.4243
36.9028
37.3951
37.9017
38.4234
38.9608
39.5144
40.0852
40.6738
41.281
41.9077
42.5549
43.2234
43.9144
44.6289
45.3682
46.1335
46.9261
47.7475
48.5992
49.4829
50.4003
51.3534
52.3443
53.3751
54.4483
55.5664
56.7322
57.9488
59.2196
60.548
61.938
63.3939
64.9204
66.5226
68.2061
69.9771
71.8426
73.8101
75.8879
78.0855
80.4133
82.8828
85.5073
88.3013
91.2816
94.467
97.8788
101.542
105.483
109.737
114.339
119.334
124.772
130.715
137.233
144.412
152.355
161.187
171.06
182.163
194.734
209.071
225.558
244.708
267.203
293.934
326.086
365.293
413.872
475.219
554.516
660.159
807.038
1025.15
1384.39
2093.64
3955.83
11115.5
64001.1
)
;

boundaryField
{
    top_wall
    {
        type            omegaWallFunction;
        blending        binomial;
        n               2;
        value           uniform 64001.1;
    }
    inlet
    {
        type            cyclic;
    }
    bot_wall
    {
        type            omegaWallFunction;
        blending        binomial;
        n               2;
        value           uniform 64001.1;
    }
    outlet
    {
        type            cyclic;
    }
    frontAndBack
    {
        type            empty;
    }
}


// ************************************************************************* //
