/*--------------------------------*- C++ -*----------------------------------*\
| =========                 |                                                 |
| \\      /  F ield         | OpenFOAM: The Open Source CFD Toolbox           |
|  \\    /   O peration     | Version:  2406                                  |
|   \\  /    A nd           | Website:  www.openfoam.com                      |
|    \\/     M anipulation  |                                                 |
\*---------------------------------------------------------------------------*/
FoamFile
{
    version     2.0;
    format      ascii;
    arch        "LSB;label=32;scalar=64";
    class       surfaceScalarField;
    location    "20.77";
    object      phi;
}
// * * * * * * * * * * * * * * * * * * * * * * * * * * * * * * * * * * * * * //

dimensions      [0 3 -1 0 0 0 0];

oriented        oriented;

internalField   nonuniform List<scalar> 
999
(
-2.70953e-18
-2.70542e-18
-2.69894e-18
-2.70243e-18
-2.6922e-18
-2.69669e-18
-2.70552e-18
-2.69989e-18
-2.62483e-18
-2.61198e-18
-2.6193e-18
-2.60665e-18
-2.61568e-18
-2.60628e-18
-2.64139e-18
-2.64093e-18
-2.6457e-18
-2.64535e-18
-2.65076e-18
-2.65884e-18
-2.67087e-18
-2.68332e-18
-2.68645e-18
-2.68023e-18
-2.67639e-18
-2.67219e-18
-2.66825e-18
-2.66567e-18
-2.67995e-18
-2.68925e-18
-2.69972e-18
-2.70946e-18
-2.71853e-18
-2.72697e-18
-2.73485e-18
-2.7422e-18
-2.74906e-18
-2.75546e-18
-2.76144e-18
-2.76702e-18
-2.77224e-18
-2.77711e-18
-2.78166e-18
-2.7859e-18
-2.78987e-18
-2.79356e-18
-2.797e-18
-2.80021e-18
-2.80319e-18
-2.80595e-18
-2.80852e-18
-2.81089e-18
-2.81308e-18
-2.81509e-18
-2.81694e-18
-2.81862e-18
-2.82015e-18
-2.82154e-18
-2.82278e-18
-2.82389e-18
-2.82486e-18
-2.82571e-18
-2.82644e-18
-2.82705e-18
-2.82755e-18
-2.82793e-18
-2.82822e-18
-2.8284e-18
-2.82848e-18
-2.82847e-18
-2.82837e-18
-2.82818e-18
-2.8279e-18
-2.82755e-18
-2.82711e-18
-2.82661e-18
-2.82602e-18
-2.82537e-18
-2.82466e-18
-2.82387e-18
-2.82303e-18
-2.82212e-18
-2.82116e-18
-2.82015e-18
-2.81908e-18
-2.81796e-18
-2.81679e-18
-2.81557e-18
-2.81431e-18
-2.813e-18
-2.81165e-18
-2.81026e-18
-2.80883e-18
-2.80736e-18
-2.80585e-18
-2.80431e-18
-2.80272e-18
-2.8011e-18
-2.79944e-18
-2.79774e-18
-2.796e-18
-2.79422e-18
-2.79241e-18
-2.79055e-18
-2.78865e-18
-2.7867e-18
-2.78471e-18
-2.78266e-18
-2.78057e-18
-2.77842e-18
-2.77621e-18
-2.77394e-18
-2.77161e-18
-2.7692e-18
-2.76672e-18
-2.76416e-18
-2.7615e-18
-2.75874e-18
-2.75587e-18
-2.75286e-18
-2.7497e-18
-2.74634e-18
-2.74275e-18
-2.73887e-18
-2.73464e-18
-2.72994e-18
-2.72473e-18
-2.71892e-18
-2.71232e-18
-2.70469e-18
-2.6958e-18
-2.68538e-18
-2.67305e-18
-2.65847e-18
-2.64129e-18
-2.62127e-18
-2.59826e-18
-2.57091e-18
-2.53847e-18
-2.51918e-18
-2.57141e-18
-2.55897e-18
-2.54351e-18
-2.53024e-18
-2.52169e-18
-2.51532e-18
-2.51095e-18
-2.50822e-18
-2.50674e-18
-2.50612e-18
-2.50595e-18
-2.50591e-18
-2.50568e-18
-2.50496e-18
-2.50351e-18
-2.50111e-18
-2.49757e-18
-2.49271e-18
-2.48636e-18
-2.47838e-18
-2.46866e-18
-2.45716e-18
-2.44389e-18
-2.42893e-18
-2.41244e-18
-2.39466e-18
-2.37601e-18
-2.35709e-18
-2.34234e-18
-2.32581e-18
-2.30332e-18
-2.45425e-18
-2.43125e-18
-2.41365e-18
-2.39742e-18
-2.3766e-18
-2.35564e-18
-2.33512e-18
-2.31544e-18
-2.29688e-18
-2.27963e-18
-2.26373e-18
-2.2492e-18
-2.23596e-18
-2.22392e-18
-2.21295e-18
-2.20294e-18
-2.19373e-18
-2.18519e-18
-2.17712e-18
-2.16933e-18
-2.16165e-18
-2.1539e-18
-2.14587e-18
-2.13731e-18
-2.12794e-18
-2.1174e-18
-2.10519e-18
-2.09064e-18
-2.07286e-18
-2.05307e-18
-2.02766e-18
-2.00872e-18
-2.04436e-18
-2.0163e-18
-1.98413e-18
-1.95662e-18
-1.93141e-18
-1.9097e-18
-1.89059e-18
-1.87348e-18
-1.85792e-18
-1.8436e-18
-1.83027e-18
-1.81775e-18
-1.80588e-18
-1.79455e-18
-1.78367e-18
-1.77316e-18
-1.76295e-18
-1.75298e-18
-1.74321e-18
-1.7336e-18
-1.72414e-18
-1.7148e-18
-1.70559e-18
-1.69652e-18
-1.6876e-18
-1.67878e-18
-1.67004e-18
-1.66139e-18
-1.65283e-18
-1.64441e-18
-1.63612e-18
-1.62793e-18
-1.61983e-18
-1.61181e-18
-1.60388e-18
-1.59606e-18
-1.58833e-18
-1.5807e-18
-1.57317e-18
-1.56575e-18
-1.55842e-18
-1.55121e-18
-1.54409e-18
-1.53707e-18
-1.53015e-18
-1.52333e-18
-1.51659e-18
-1.50994e-18
-1.50338e-18
-1.49692e-18
-1.49059e-18
-1.48436e-18
-1.4782e-18
-1.47211e-18
-1.46611e-18
-1.46023e-18
-1.45446e-18
-1.44877e-18
-1.44314e-18
-1.43756e-18
-1.43205e-18
-1.42664e-18
-1.42132e-18
-1.41608e-18
-1.41093e-18
-1.40586e-18
-1.40086e-18
-1.39592e-18
-1.39106e-18
-1.38625e-18
-1.3815e-18
-1.37681e-18
-1.37217e-18
-1.36757e-18
-1.36301e-18
-1.3585e-18
-1.35402e-18
-1.34957e-18
-1.34515e-18
-1.34076e-18
-1.3364e-18
-1.33205e-18
-1.32773e-18
-1.32342e-18
-1.31912e-18
-1.31484e-18
-1.31057e-18
-1.3063e-18
-1.30204e-18
-1.29779e-18
-1.29354e-18
-1.28929e-18
-1.28504e-18
-1.2808e-18
-1.27655e-18
-1.27229e-18
-1.26804e-18
-1.26377e-18
-1.25951e-18
-1.25524e-18
-1.25096e-18
-1.24667e-18
-1.24237e-18
-1.23807e-18
-1.23376e-18
-1.22944e-18
-1.22511e-18
-1.22077e-18
-1.21642e-18
-1.21206e-18
-1.20769e-18
-1.20331e-18
-1.19893e-18
-1.19453e-18
-1.19012e-18
-1.1857e-18
-1.18127e-18
-1.17683e-18
-1.17238e-18
-1.16793e-18
-1.16346e-18
-1.15899e-18
-1.1545e-18
-1.15001e-18
-1.14551e-18
-1.141e-18
-1.13648e-18
-1.13195e-18
-1.12742e-18
-1.12287e-18
-1.11832e-18
-1.11376e-18
-1.10919e-18
-1.10461e-18
-1.10002e-18
-1.09541e-18
-1.0908e-18
-1.08617e-18
-1.08153e-18
-1.07688e-18
-1.07222e-18
-1.06755e-18
-1.06288e-18
-1.05822e-18
-1.05357e-18
-1.04894e-18
-1.04435e-18
-1.0398e-18
-1.03532e-18
-1.03092e-18
-1.02659e-18
-1.02235e-18
-1.01817e-18
-1.01403e-18
-1.0099e-18
-1.00577e-18
-1.00164e-18
-9.97515e-19
-9.93392e-19
-9.89272e-19
-9.85155e-19
-9.81041e-19
-9.76929e-19
-9.7282e-19
-9.68713e-19
-9.6461e-19
-9.60509e-19
-9.56412e-19
-9.52317e-19
-9.48226e-19
-9.44138e-19
-9.40053e-19
-9.35971e-19
-9.31892e-19
-9.27817e-19
-9.23745e-19
-9.19676e-19
-9.15611e-19
-9.11549e-19
-9.0749e-19
-9.03435e-19
-8.99383e-19
-8.95335e-19
-8.9129e-19
-8.87249e-19
-8.83212e-19
-8.79178e-19
-8.75147e-19
-8.7112e-19
-8.67097e-19
-8.63077e-19
-8.59061e-19
-8.55049e-19
-8.5104e-19
-8.47035e-19
-8.43034e-19
-8.39036e-19
-8.35043e-19
-8.31053e-19
-8.27066e-19
-8.23084e-19
-8.19106e-19
-8.15131e-19
-8.1116e-19
-8.07194e-19
-8.03231e-19
-7.99272e-19
-7.95317e-19
-7.91366e-19
-7.8742e-19
-7.83477e-19
-7.79539e-19
-7.75605e-19
-7.71675e-19
-7.67749e-19
-7.63828e-19
-7.59911e-19
-7.55998e-19
-7.5209e-19
-7.48187e-19
-7.44288e-19
-7.40394e-19
-7.36504e-19
-7.3262e-19
-7.2874e-19
-7.24865e-19
-7.20995e-19
-7.1713e-19
-7.13271e-19
-7.09416e-19
-7.05567e-19
-7.01723e-19
-6.97885e-19
-6.94053e-19
-6.90226e-19
-6.86404e-19
-6.82589e-19
-6.7878e-19
-6.74977e-19
-6.7118e-19
-6.67389e-19
-6.63605e-19
-6.59827e-19
-6.56056e-19
-6.52291e-19
-6.48534e-19
-6.44784e-19
-6.4104e-19
-6.37305e-19
-6.33576e-19
-6.29855e-19
-6.26142e-19
-6.22437e-19
-6.18739e-19
-6.1505e-19
-6.11368e-19
-6.07695e-19
-6.0403e-19
-6.00373e-19
-5.96725e-19
-5.93085e-19
-5.89455e-19
-5.85833e-19
-5.8222e-19
-5.78616e-19
-5.75021e-19
-5.71436e-19
-5.6786e-19
-5.64294e-19
-5.60737e-19
-5.5719e-19
-5.53653e-19
-5.50127e-19
-5.4661e-19
-5.43104e-19
-5.39608e-19
-5.36123e-19
-5.32648e-19
-5.29185e-19
-5.25732e-19
-5.2229e-19
-5.1886e-19
-5.15441e-19
-5.12031e-19
-5.08628e-19
-5.05231e-19
-5.01842e-19
-4.98459e-19
-4.95084e-19
-4.91716e-19
-4.88357e-19
-4.85008e-19
-4.81669e-19
-4.7834e-19
-4.75019e-19
-4.71709e-19
-4.68408e-19
-4.65118e-19
-4.61837e-19
-4.58567e-19
-4.55306e-19
-4.52056e-19
-4.48818e-19
-4.4559e-19
-4.42374e-19
-4.39167e-19
-4.35969e-19
-4.3278e-19
-4.29601e-19
-4.26432e-19
-4.23273e-19
-4.20126e-19
-4.16994e-19
-4.13877e-19
-4.10775e-19
-4.07689e-19
-4.04617e-19
-4.01561e-19
-3.98521e-19
-3.95496e-19
-3.92487e-19
-3.89493e-19
-3.86515e-19
-3.83553e-19
-3.80607e-19
-3.77677e-19
-3.74763e-19
-3.71865e-19
-3.68983e-19
-3.66117e-19
-3.63268e-19
-3.60435e-19
-3.57618e-19
-3.54818e-19
-3.52034e-19
-3.49266e-19
-3.46515e-19
-3.4378e-19
-3.41062e-19
-3.38361e-19
-3.35676e-19
-3.33008e-19
-3.30356e-19
-3.27721e-19
-3.25102e-19
-3.22501e-19
-3.19915e-19
-3.17347e-19
-3.14795e-19
-3.1226e-19
-3.09742e-19
-3.07241e-19
-3.04756e-19
-3.02289e-19
-2.99838e-19
-2.97403e-19
-2.94986e-19
-2.92586e-19
-2.90202e-19
-2.87835e-19
-2.85485e-19
-2.83151e-19
-2.80835e-19
-2.78535e-19
-2.76251e-19
-2.73985e-19
-2.71735e-19
-2.69501e-19
-2.67284e-19
-2.65084e-19
-2.629e-19
-2.60732e-19
-2.58581e-19
-2.56446e-19
-2.54328e-19
-2.52225e-19
-2.50139e-19
-2.48069e-19
-2.46014e-19
-2.43976e-19
-2.41954e-19
-2.39947e-19
-2.37956e-19
-2.35981e-19
-2.34022e-19
-2.32078e-19
-2.3015e-19
-2.28237e-19
-2.26339e-19
-2.24456e-19
-2.22589e-19
-2.20737e-19
-2.189e-19
-2.17077e-19
-2.1527e-19
-2.13477e-19
-2.11699e-19
-2.09935e-19
-2.08186e-19
-2.06452e-19
-2.04731e-19
-2.03025e-19
-2.01333e-19
-1.99655e-19
-1.97991e-19
-1.96341e-19
-1.94704e-19
-1.93082e-19
-1.91472e-19
-1.89876e-19
-1.88294e-19
-1.86725e-19
-1.85169e-19
-1.83626e-19
-1.82096e-19
-1.80579e-19
-1.79075e-19
-1.77583e-19
-1.76104e-19
-1.74638e-19
-1.73184e-19
-1.71742e-19
-1.70312e-19
-1.68895e-19
-1.67489e-19
-1.66096e-19
-1.64714e-19
-1.63344e-19
-1.61985e-19
-1.60638e-19
-1.59303e-19
-1.57979e-19
-1.56666e-19
-1.55364e-19
-1.54073e-19
-1.52794e-19
-1.51525e-19
-1.50267e-19
-1.49019e-19
-1.47782e-19
-1.46553e-19
-1.45325e-19
-1.44088e-19
-1.42838e-19
-1.41576e-19
-1.40302e-19
-1.39022e-19
-1.37737e-19
-1.36453e-19
-1.35172e-19
-1.33898e-19
-1.32632e-19
-1.31376e-19
-1.30131e-19
-1.28898e-19
-1.27678e-19
-1.2647e-19
-1.25274e-19
-1.2409e-19
-1.22917e-19
-1.21756e-19
-1.20606e-19
-1.19467e-19
-1.18338e-19
-1.17219e-19
-1.1611e-19
-1.15012e-19
-1.13923e-19
-1.12843e-19
-1.11774e-19
-1.10713e-19
-1.09663e-19
-1.08621e-19
-1.07589e-19
-1.06566e-19
-1.05552e-19
-1.04547e-19
-1.03551e-19
-1.02564e-19
-1.01586e-19
-1.00616e-19
-9.96559e-20
-9.8704e-20
-9.77607e-20
-9.6826e-20
-9.58997e-20
-9.49818e-20
-9.40722e-20
-9.31709e-20
-9.22778e-20
-9.13928e-20
-9.05159e-20
-8.9647e-20
-8.8786e-20
-8.79329e-20
-8.70876e-20
-8.625e-20
-8.54201e-20
-8.45979e-20
-8.37832e-20
-8.2976e-20
-8.21762e-20
-8.13838e-20
-8.05987e-20
-7.98209e-20
-7.90503e-20
-7.82868e-20
-7.75303e-20
-7.67809e-20
-7.60385e-20
-7.5303e-20
-7.45743e-20
-7.38524e-20
-7.31372e-20
-7.24287e-20
-7.17268e-20
-7.10315e-20
-7.03427e-20
-6.96604e-20
-6.89845e-20
-6.83149e-20
-6.76517e-20
-6.69947e-20
-6.63439e-20
-6.56992e-20
-6.50606e-20
-6.44281e-20
-6.38016e-20
-6.3181e-20
-6.25663e-20
-6.19574e-20
-6.13544e-20
-6.07571e-20
-6.01655e-20
-5.95795e-20
-5.89992e-20
-5.84244e-20
-5.78551e-20
-5.72913e-20
-5.67329e-20
-5.61799e-20
-5.56322e-20
-5.50899e-20
-5.45527e-20
-5.40207e-20
-5.34939e-20
-5.29722e-20
-5.24556e-20
-5.1944e-20
-5.14374e-20
-5.09357e-20
-5.04389e-20
-4.9947e-20
-4.94598e-20
-4.89775e-20
-4.84999e-20
-4.8027e-20
-4.75587e-20
-4.70951e-20
-4.6636e-20
-4.61815e-20
-4.57314e-20
-4.52858e-20
-4.48447e-20
-4.44079e-20
-4.39755e-20
-4.35473e-20
-4.31235e-20
-4.27039e-20
-4.22884e-20
-4.18772e-20
-4.147e-20
-4.1067e-20
-4.0668e-20
-4.0273e-20
-3.9882e-20
-3.9495e-20
-3.91119e-20
-3.87327e-20
-3.83573e-20
-3.79857e-20
-3.76179e-20
-3.72539e-20
-3.68937e-20
-3.65371e-20
-3.61842e-20
-3.58349e-20
-3.54893e-20
-3.51473e-20
-3.48089e-20
-3.44741e-20
-3.41428e-20
-3.38151e-20
-3.34911e-20
-3.31706e-20
-3.28537e-20
-3.25405e-20
-3.22309e-20
-3.1925e-20
-3.16229e-20
-3.13246e-20
-3.10301e-20
-3.07394e-20
-3.04527e-20
-3.01698e-20
-2.98908e-20
-2.96155e-20
-2.93437e-20
-2.90752e-20
-2.88097e-20
-2.85468e-20
-2.82867e-20
-2.80293e-20
-2.77746e-20
-2.75224e-20
-2.72729e-20
-2.7026e-20
-2.67816e-20
-2.65398e-20
-2.63005e-20
-2.60637e-20
-2.58293e-20
-2.55974e-20
-2.53679e-20
-2.51409e-20
-2.49161e-20
-2.46938e-20
-2.44737e-20
-2.4256e-20
-2.40406e-20
-2.38274e-20
-2.36165e-20
-2.34077e-20
-2.32012e-20
-2.29969e-20
-2.27947e-20
-2.25947e-20
-2.23967e-20
-2.22009e-20
-2.20072e-20
-2.18155e-20
-2.16258e-20
-2.14381e-20
-2.12525e-20
-2.10688e-20
-2.08871e-20
-2.07074e-20
-2.05295e-20
-2.03536e-20
-2.01795e-20
-2.00073e-20
-1.9837e-20
-1.96684e-20
-1.95017e-20
-1.93368e-20
-1.91737e-20
-1.90123e-20
-1.88527e-20
-1.86948e-20
-1.85386e-20
-1.8384e-20
-1.82312e-20
-1.808e-20
-1.79305e-20
-1.77826e-20
-1.76363e-20
-1.74915e-20
-1.73484e-20
-1.72068e-20
-1.70668e-20
-1.69283e-20
-1.67913e-20
-1.66558e-20
-1.65217e-20
-1.63892e-20
-1.62581e-20
-1.61284e-20
-1.60001e-20
-1.58733e-20
-1.57479e-20
-1.56238e-20
-1.55011e-20
-1.53797e-20
-1.52597e-20
-1.51409e-20
-1.50235e-20
-1.49074e-20
-1.47925e-20
-1.46789e-20
-1.45666e-20
-1.44555e-20
-1.43456e-20
-1.42369e-20
-1.41294e-20
-1.4023e-20
-1.39178e-20
-1.38138e-20
-1.37109e-20
-1.36091e-20
-1.35085e-20
-1.34089e-20
-1.33104e-20
-1.32129e-20
-1.31165e-20
-1.30212e-20
-1.29268e-20
-1.28335e-20
-1.27412e-20
-1.26498e-20
-1.25594e-20
-1.24699e-20
-1.23814e-20
-1.22938e-20
-1.22071e-20
-1.21213e-20
-1.20363e-20
-1.19522e-20
-1.1869e-20
-1.17866e-20
-1.17049e-20
-1.16241e-20
-1.15441e-20
-1.14648e-20
-1.13863e-20
-1.13085e-20
-1.12314e-20
-1.1155e-20
-1.10792e-20
-1.10041e-20
-1.09297e-20
-1.08558e-20
-1.07826e-20
-1.07099e-20
-1.06378e-20
-1.05662e-20
-1.04951e-20
-1.04245e-20
-1.03544e-20
-1.02847e-20
-1.02153e-20
-1.01464e-20
-1.00778e-20
-1.00095e-20
-9.94155e-21
-9.87382e-21
-9.80631e-21
-9.73898e-21
-9.67179e-21
-9.60471e-21
-9.53768e-21
-9.47067e-21
-9.40363e-21
-9.3365e-21
-9.26923e-21
-9.20176e-21
-9.13403e-21
-9.06597e-21
-8.99751e-21
-8.92857e-21
-8.85907e-21
-8.78891e-21
-8.71798e-21
-8.6462e-21
-8.57342e-21
-8.49953e-21
-8.42436e-21
-8.34778e-21
-8.26958e-21
-8.18957e-21
-8.10754e-21
-8.02321e-21
-7.93631e-21
-7.84651e-21
-7.75342e-21
-7.65663e-21
-7.55562e-21
-7.4498e-21
-7.33848e-21
-7.22084e-21
-7.09586e-21
-6.96229e-21
-6.81841e-21
-6.66209e-21
-6.49078e-21
-6.30128e-21
-6.08953e-21
-5.85023e-21
-5.57643e-21
-5.2589e-21
-4.88541e-21
-4.43839e-21
-3.89475e-21
-3.23846e-21
-2.48234e-21
-1.66835e-21
-8.35582e-22
)
;

boundaryField
{
    top_wall
    {
        type            calculated;
        value           uniform 0;
    }
    inlet
    {
        type            cyclic;
        value           nonuniform List<scalar> 
1000
(
-2.37856e-05
-7.12442e-05
-0.000118298
-0.000163422
-0.00020372
-0.000237371
-0.000264796
-0.000287423
-0.000306453
-0.000322682
-0.000336706
-0.000348974
-0.000359826
-0.00036952
-0.000378257
-0.000386196
-0.000393465
-0.000400173
-0.000406403
-0.000412214
-0.000417657
-0.000422775
-0.000427602
-0.000432169
-0.000436502
-0.000440622
-0.00044455
-0.000448301
-0.000451891
-0.000455332
-0.000458637
-0.000461815
-0.000464875
-0.000467826
-0.000470676
-0.00047343
-0.000476096
-0.000478678
-0.000481181
-0.00048361
-0.00048597
-0.000488264
-0.000490496
-0.000492669
-0.000494785
-0.000496849
-0.000498862
-0.000500827
-0.000502746
-0.000504622
-0.000506455
-0.000508249
-0.000510004
-0.000511723
-0.000513407
-0.000515057
-0.000516675
-0.000518262
-0.000519819
-0.000521348
-0.000522848
-0.000524323
-0.000525771
-0.000527195
-0.000528595
-0.000529971
-0.000531326
-0.000532659
-0.000533971
-0.000535263
-0.000536535
-0.000537789
-0.000539024
-0.000540242
-0.000541442
-0.000542626
-0.000543793
-0.000544945
-0.000546081
-0.000547203
-0.00054831
-0.000549403
-0.000550483
-0.000551549
-0.000552602
-0.000553643
-0.000554671
-0.000555688
-0.000556693
-0.000557687
-0.000558669
-0.000559641
-0.000560603
-0.000561554
-0.000562495
-0.000563426
-0.000564348
-0.000565261
-0.000566164
-0.000567059
-0.000567945
-0.000568822
-0.000569692
-0.000570553
-0.000571406
-0.000572252
-0.00057309
-0.00057392
-0.000574743
-0.00057556
-0.000576369
-0.000577171
-0.000577967
-0.000578757
-0.00057954
-0.000580316
-0.000581087
-0.000581852
-0.00058261
-0.000583363
-0.00058411
-0.000584852
-0.000585589
-0.00058632
-0.000587045
-0.000587766
-0.000588482
-0.000589192
-0.000589898
-0.000590599
-0.000591296
-0.000591988
-0.000592675
-0.000593358
-0.000594037
-0.000594711
-0.000595382
-0.000596048
-0.00059671
-0.000597368
-0.000598022
-0.000598673
-0.00059932
-0.000599963
-0.000600602
-0.000601238
-0.00060187
-0.000602499
-0.000603125
-0.000603747
-0.000604366
-0.000604982
-0.000605594
-0.000606204
-0.00060681
-0.000607413
-0.000608014
-0.000608611
-0.000609206
-0.000609798
-0.000610387
-0.000610973
-0.000611557
-0.000612138
-0.000612716
-0.000613292
-0.000613866
-0.000614436
-0.000615005
-0.000615571
-0.000616135
-0.000616696
-0.000617255
-0.000617812
-0.000618366
-0.000618918
-0.000619469
-0.000620017
-0.000620562
-0.000621106
-0.000621648
-0.000622188
-0.000622726
-0.000623262
-0.000623796
-0.000624328
-0.000624858
-0.000625386
-0.000625913
-0.000626438
-0.000626963
-0.000627488
-0.000628013
-0.000628538
-0.000629063
-0.000629588
-0.000630113
-0.000630637
-0.000631162
-0.000631686
-0.000632209
-0.000632732
-0.000633254
-0.000633775
-0.000634295
-0.000634815
-0.000635333
-0.00063585
-0.000636366
-0.000636882
-0.000637396
-0.000637908
-0.00063842
-0.000638931
-0.000639441
-0.000639949
-0.000640457
-0.000640963
-0.000641468
-0.000641972
-0.000642476
-0.000642978
-0.000643479
-0.000643979
-0.000644477
-0.000644975
-0.000645472
-0.000645968
-0.000646463
-0.000646956
-0.000647449
-0.000647941
-0.000648432
-0.000648921
-0.00064941
-0.000649898
-0.000650385
-0.000650871
-0.000651356
-0.000651839
-0.000652322
-0.000652804
-0.000653285
-0.000653766
-0.000654245
-0.000654723
-0.0006552
-0.000655677
-0.000656152
-0.000656626
-0.0006571
-0.000657573
-0.000658044
-0.000658515
-0.000658985
-0.000659454
-0.000659922
-0.000660389
-0.000660855
-0.000661321
-0.000661785
-0.000662249
-0.000662711
-0.000663173
-0.000663634
-0.000664094
-0.000664553
-0.000665011
-0.000665468
-0.000665924
-0.00066638
-0.000666834
-0.000667288
-0.000667741
-0.000668192
-0.000668643
-0.000669093
-0.000669542
-0.000669991
-0.000670438
-0.000670884
-0.00067133
-0.000671775
-0.000672218
-0.000672661
-0.000673103
-0.000673544
-0.000673984
-0.000674424
-0.000674862
-0.000675299
-0.000675736
-0.000676172
-0.000676606
-0.00067704
-0.000677473
-0.000677905
-0.000678336
-0.000678766
-0.000679195
-0.000679623
-0.000680051
-0.000680477
-0.000680903
-0.000681327
-0.000681751
-0.000682173
-0.000682595
-0.000683016
-0.000683436
-0.000683854
-0.000684272
-0.000684689
-0.000685105
-0.00068552
-0.000685934
-0.000686347
-0.000686759
-0.00068717
-0.00068758
-0.000687989
-0.000688398
-0.000688805
-0.000689211
-0.000689616
-0.000690019
-0.000690422
-0.000690824
-0.000691225
-0.000691625
-0.000692023
-0.000692421
-0.000692818
-0.000693213
-0.000693608
-0.000694002
-0.000694395
-0.000694787
-0.000695178
-0.000695569
-0.000695959
-0.000696349
-0.000696738
-0.000697126
-0.000697514
-0.0006979
-0.000698285
-0.000698667
-0.000699046
-0.000699422
-0.000699793
-0.000700157
-0.000700515
-0.000700864
-0.000701206
-0.00070154
-0.000701869
-0.000702194
-0.000702519
-0.000702841
-0.000703163
-0.000703483
-0.000703801
-0.000704118
-0.000704433
-0.000704747
-0.000705059
-0.00070537
-0.000705679
-0.000705987
-0.000706293
-0.000706598
-0.000706901
-0.000707203
-0.000707503
-0.000707801
-0.000708098
-0.000708393
-0.000708687
-0.000708979
-0.00070927
-0.000709559
-0.000709846
-0.000710132
-0.000710416
-0.000710698
-0.000710979
-0.000711258
-0.000711535
-0.000711811
-0.000712085
-0.000712357
-0.000712628
-0.000712897
-0.000713164
-0.000713429
-0.000713693
-0.000713954
-0.000714214
-0.000714473
-0.000714729
-0.000714984
-0.000715236
-0.000715487
-0.000715736
-0.000715983
-0.000716229
-0.000716472
-0.000716713
-0.000716953
-0.00071719
-0.000717426
-0.000717659
-0.000717891
-0.00071812
-0.000718348
-0.000718573
-0.000718797
-0.000719018
-0.000719237
-0.000719454
-0.000719669
-0.000719882
-0.000720093
-0.000720302
-0.000720508
-0.000720712
-0.000720914
-0.000721114
-0.000721311
-0.000721506
-0.000721699
-0.00072189
-0.000722078
-0.000722264
-0.000722447
-0.000722628
-0.000722807
-0.000722983
-0.000723157
-0.000723329
-0.000723498
-0.000723664
-0.000723828
-0.00072399
-0.000724148
-0.000724305
-0.000724459
-0.00072461
-0.000724758
-0.000724904
-0.000725048
-0.000725188
-0.000725326
-0.000725462
-0.000725594
-0.000725724
-0.000725851
-0.000725976
-0.000726098
-0.000726216
-0.000726333
-0.000726446
-0.000726556
-0.000726664
-0.000726769
-0.000726871
-0.00072697
-0.000727066
-0.00072716
-0.00072725
-0.000727338
-0.000727423
-0.000727504
-0.000727583
-0.000727659
-0.000727732
-0.000727802
-0.000727869
-0.000727933
-0.000727994
-0.000728052
-0.000728107
-0.000728159
-0.000728208
-0.000728254
-0.000728297
-0.000728337
-0.000728373
-0.000728407
-0.000728438
-0.000728466
-0.00072849
-0.000728512
-0.00072853
-0.000728546
-0.000728558
-0.000728567
-0.000728573
-0.000728576
-0.000728576
-0.000728573
-0.000728567
-0.000728558
-0.000728546
-0.00072853
-0.000728512
-0.00072849
-0.000728466
-0.000728438
-0.000728407
-0.000728374
-0.000728337
-0.000728297
-0.000728254
-0.000728208
-0.000728159
-0.000728107
-0.000728052
-0.000727994
-0.000727933
-0.000727869
-0.000727802
-0.000727732
-0.000727659
-0.000727583
-0.000727505
-0.000727423
-0.000727338
-0.000727251
-0.00072716
-0.000727067
-0.00072697
-0.000726871
-0.000726769
-0.000726664
-0.000726557
-0.000726446
-0.000726333
-0.000726217
-0.000726098
-0.000725976
-0.000725852
-0.000725724
-0.000725594
-0.000725462
-0.000725327
-0.000725189
-0.000725048
-0.000724904
-0.000724759
-0.00072461
-0.000724459
-0.000724305
-0.000724149
-0.00072399
-0.000723828
-0.000723664
-0.000723498
-0.000723329
-0.000723157
-0.000722984
-0.000722807
-0.000722628
-0.000722447
-0.000722264
-0.000722078
-0.00072189
-0.000721699
-0.000721506
-0.000721311
-0.000721114
-0.000720914
-0.000720712
-0.000720508
-0.000720302
-0.000720093
-0.000719883
-0.00071967
-0.000719455
-0.000719238
-0.000719018
-0.000718797
-0.000718574
-0.000718348
-0.000718121
-0.000717891
-0.00071766
-0.000717426
-0.00071719
-0.000716953
-0.000716713
-0.000716472
-0.000716229
-0.000715984
-0.000715736
-0.000715487
-0.000715237
-0.000714984
-0.000714729
-0.000714473
-0.000714215
-0.000713955
-0.000713693
-0.000713429
-0.000713164
-0.000712897
-0.000712628
-0.000712358
-0.000712085
-0.000711811
-0.000711536
-0.000711258
-0.000710979
-0.000710698
-0.000710416
-0.000710132
-0.000709846
-0.000709559
-0.00070927
-0.00070898
-0.000708687
-0.000708394
-0.000708098
-0.000707802
-0.000707503
-0.000707203
-0.000706901
-0.000706598
-0.000706294
-0.000705987
-0.00070568
-0.00070537
-0.000705059
-0.000704747
-0.000704433
-0.000704118
-0.000703801
-0.000703483
-0.000703163
-0.000702842
-0.000702519
-0.000702195
-0.000701869
-0.00070154
-0.000701206
-0.000700865
-0.000700515
-0.000700157
-0.000699793
-0.000699422
-0.000699047
-0.000698667
-0.000698285
-0.0006979
-0.000697514
-0.000697127
-0.000696738
-0.000696349
-0.00069596
-0.000695569
-0.000695179
-0.000694787
-0.000694395
-0.000694002
-0.000693608
-0.000693214
-0.000692818
-0.000692421
-0.000692024
-0.000691625
-0.000691225
-0.000690824
-0.000690423
-0.00069002
-0.000689616
-0.000689211
-0.000688805
-0.000688398
-0.00068799
-0.000687581
-0.000687171
-0.00068676
-0.000686347
-0.000685934
-0.00068552
-0.000685105
-0.000684689
-0.000684273
-0.000683855
-0.000683436
-0.000683016
-0.000682595
-0.000682174
-0.000681751
-0.000681327
-0.000680903
-0.000680477
-0.000680051
-0.000679624
-0.000679195
-0.000678766
-0.000678336
-0.000677905
-0.000677473
-0.00067704
-0.000676606
-0.000676172
-0.000675736
-0.0006753
-0.000674862
-0.000674424
-0.000673985
-0.000673544
-0.000673103
-0.000672661
-0.000672219
-0.000671775
-0.00067133
-0.000670885
-0.000670438
-0.000669991
-0.000669543
-0.000669093
-0.000668643
-0.000668192
-0.000667741
-0.000667288
-0.000666834
-0.00066638
-0.000665924
-0.000665468
-0.000665011
-0.000664553
-0.000664094
-0.000663634
-0.000663173
-0.000662711
-0.000662249
-0.000661785
-0.000661321
-0.000660855
-0.000660389
-0.000659922
-0.000659454
-0.000658985
-0.000658515
-0.000658044
-0.000657573
-0.0006571
-0.000656626
-0.000656152
-0.000655677
-0.0006552
-0.000654723
-0.000654245
-0.000653766
-0.000653285
-0.000652804
-0.000652322
-0.000651839
-0.000651356
-0.000650871
-0.000650385
-0.000649898
-0.00064941
-0.000648921
-0.000648432
-0.000647941
-0.000647449
-0.000646956
-0.000646463
-0.000645968
-0.000645472
-0.000644975
-0.000644477
-0.000643978
-0.000643479
-0.000642978
-0.000642475
-0.000641972
-0.000641468
-0.000640963
-0.000640457
-0.000639949
-0.000639441
-0.000638931
-0.00063842
-0.000637908
-0.000637395
-0.000636881
-0.000636366
-0.00063585
-0.000635333
-0.000634815
-0.000634295
-0.000633775
-0.000633254
-0.000632732
-0.000632209
-0.000631686
-0.000631162
-0.000630637
-0.000630113
-0.000629588
-0.000629063
-0.000628538
-0.000628013
-0.000627488
-0.000626963
-0.000626438
-0.000625913
-0.000625386
-0.000624858
-0.000624328
-0.000623796
-0.000623262
-0.000622726
-0.000622188
-0.000621648
-0.000621106
-0.000620562
-0.000620016
-0.000619468
-0.000618918
-0.000618366
-0.000617811
-0.000617255
-0.000616696
-0.000616134
-0.000615571
-0.000615005
-0.000614436
-0.000613865
-0.000613292
-0.000612716
-0.000612138
-0.000611557
-0.000610973
-0.000610387
-0.000609798
-0.000609206
-0.000608611
-0.000608014
-0.000607413
-0.00060681
-0.000606203
-0.000605594
-0.000604981
-0.000604366
-0.000603747
-0.000603124
-0.000602499
-0.00060187
-0.000601238
-0.000600602
-0.000599962
-0.000599319
-0.000598673
-0.000598022
-0.000597368
-0.00059671
-0.000596047
-0.000595381
-0.000594711
-0.000594037
-0.000593358
-0.000592675
-0.000591988
-0.000591296
-0.000590599
-0.000589898
-0.000589192
-0.000588481
-0.000587766
-0.000587045
-0.000586319
-0.000585588
-0.000584852
-0.00058411
-0.000583363
-0.00058261
-0.000581851
-0.000581087
-0.000580316
-0.000579539
-0.000578756
-0.000577967
-0.000577171
-0.000576369
-0.000575559
-0.000574743
-0.00057392
-0.000573089
-0.000572251
-0.000571406
-0.000570553
-0.000569691
-0.000568822
-0.000567945
-0.000567059
-0.000566164
-0.00056526
-0.000564348
-0.000563426
-0.000562495
-0.000561553
-0.000560602
-0.000559641
-0.000558669
-0.000557686
-0.000556693
-0.000555688
-0.000554671
-0.000553643
-0.000552602
-0.000551549
-0.000550482
-0.000549403
-0.00054831
-0.000547203
-0.000546081
-0.000544945
-0.000543793
-0.000542625
-0.000541442
-0.000540241
-0.000539024
-0.000537789
-0.000536535
-0.000535263
-0.000533971
-0.000532658
-0.000531326
-0.000529971
-0.000528594
-0.000527194
-0.000525771
-0.000524322
-0.000522848
-0.000521347
-0.000519819
-0.000518262
-0.000516675
-0.000515057
-0.000513407
-0.000511723
-0.000510004
-0.000508249
-0.000506455
-0.000504621
-0.000502746
-0.000500827
-0.000498862
-0.000496849
-0.000494785
-0.000492668
-0.000490496
-0.000488264
-0.00048597
-0.00048361
-0.000481181
-0.000478677
-0.000476095
-0.00047343
-0.000470676
-0.000467826
-0.000464875
-0.000461814
-0.000458636
-0.000455332
-0.00045189
-0.000448301
-0.000444549
-0.000440622
-0.000436502
-0.000432169
-0.000427602
-0.000422775
-0.000417657
-0.000412214
-0.000406403
-0.000400173
-0.000393465
-0.000386195
-0.000378257
-0.00036952
-0.000359826
-0.000348974
-0.000336706
-0.000322682
-0.000306453
-0.000287422
-0.000264796
-0.000237371
-0.000203719
-0.000163422
-0.000118298
-7.12442e-05
-2.37856e-05
)
;
    }
    bot_wall
    {
        type            calculated;
        value           uniform 0;
    }
    outlet
    {
        type            cyclic;
        value           nonuniform List<scalar> 
1000
(
2.37856e-05
7.12442e-05
0.000118298
0.000163422
0.00020372
0.000237371
0.000264796
0.000287423
0.000306453
0.000322682
0.000336706
0.000348974
0.000359826
0.00036952
0.000378257
0.000386196
0.000393465
0.000400173
0.000406403
0.000412214
0.000417657
0.000422775
0.000427602
0.000432169
0.000436502
0.000440622
0.00044455
0.000448301
0.000451891
0.000455332
0.000458637
0.000461815
0.000464875
0.000467826
0.000470676
0.00047343
0.000476096
0.000478678
0.000481181
0.00048361
0.00048597
0.000488264
0.000490496
0.000492669
0.000494785
0.000496849
0.000498862
0.000500827
0.000502746
0.000504622
0.000506455
0.000508249
0.000510004
0.000511723
0.000513407
0.000515057
0.000516675
0.000518262
0.000519819
0.000521348
0.000522848
0.000524323
0.000525771
0.000527195
0.000528595
0.000529971
0.000531326
0.000532659
0.000533971
0.000535263
0.000536535
0.000537789
0.000539024
0.000540242
0.000541442
0.000542626
0.000543793
0.000544945
0.000546081
0.000547203
0.00054831
0.000549403
0.000550483
0.000551549
0.000552602
0.000553643
0.000554671
0.000555688
0.000556693
0.000557687
0.000558669
0.000559641
0.000560603
0.000561554
0.000562495
0.000563426
0.000564348
0.000565261
0.000566164
0.000567059
0.000567945
0.000568822
0.000569692
0.000570553
0.000571406
0.000572252
0.00057309
0.00057392
0.000574743
0.00057556
0.000576369
0.000577171
0.000577967
0.000578757
0.00057954
0.000580316
0.000581087
0.000581852
0.00058261
0.000583363
0.00058411
0.000584852
0.000585589
0.00058632
0.000587045
0.000587766
0.000588482
0.000589192
0.000589898
0.000590599
0.000591296
0.000591988
0.000592675
0.000593358
0.000594037
0.000594711
0.000595382
0.000596048
0.00059671
0.000597368
0.000598022
0.000598673
0.00059932
0.000599963
0.000600602
0.000601238
0.00060187
0.000602499
0.000603125
0.000603747
0.000604366
0.000604982
0.000605594
0.000606204
0.00060681
0.000607413
0.000608014
0.000608611
0.000609206
0.000609798
0.000610387
0.000610973
0.000611557
0.000612138
0.000612716
0.000613292
0.000613866
0.000614436
0.000615005
0.000615571
0.000616135
0.000616696
0.000617255
0.000617812
0.000618366
0.000618918
0.000619469
0.000620017
0.000620562
0.000621106
0.000621648
0.000622188
0.000622726
0.000623262
0.000623796
0.000624328
0.000624858
0.000625386
0.000625913
0.000626438
0.000626963
0.000627488
0.000628013
0.000628538
0.000629063
0.000629588
0.000630113
0.000630637
0.000631162
0.000631686
0.000632209
0.000632732
0.000633254
0.000633775
0.000634295
0.000634815
0.000635333
0.00063585
0.000636366
0.000636882
0.000637396
0.000637908
0.00063842
0.000638931
0.000639441
0.000639949
0.000640457
0.000640963
0.000641468
0.000641972
0.000642476
0.000642978
0.000643479
0.000643979
0.000644477
0.000644975
0.000645472
0.000645968
0.000646463
0.000646956
0.000647449
0.000647941
0.000648432
0.000648921
0.00064941
0.000649898
0.000650385
0.000650871
0.000651356