/*--------------------------------*- C++ -*----------------------------------*\
| =========                 |                                                 |
| \\      /  F ield         | OpenFOAM: The Open Source CFD Toolbox           |
|  \\    /   O peration     | Version:  2406                                  |
|   \\  /    A nd           | Website:  www.openfoam.com                      |
|    \\/     M anipulation  |                                                 |
\*---------------------------------------------------------------------------*/
FoamFile
{
    version     2.0;
    format      ascii;
    arch        "LSB;label=32;scalar=64";
    class       volVectorField;
    location    "20.77";
    object      U;
}
// * * * * * * * * * * * * * * * * * * * * * * * * * * * * * * * * * * * * * //

dimensions      [0 1 -1 0 0 0 0];

internalField   nonuniform List<vector> 
1000
(
(0.237856 -1.19411e-17 0)
(0.712442 -3.06971e-17 0)
(1.18298 -2.84328e-17 0)
(1.63422 -2.73361e-17 0)
(2.0372 -2.69556e-17 0)
(2.37371 -2.7e-17 0)
(2.64796 -2.71114e-17 0)
(2.87423 -2.70108e-17 0)
(3.06453 -2.6615e-17 0)
(3.22682 -2.62264e-17 0)
(3.36706 -2.61187e-17 0)
(3.48974 -2.6107e-17 0)
(3.59826 -2.60871e-17 0)
(3.6952 -2.61503e-17 0)
(3.78257 -2.62457e-17 0)
(3.86196 -2.63796e-17 0)
(3.93465 -2.64571e-17 0)
(4.00173 -2.64611e-17 0)
(4.06403 -2.6477e-17 0)
(4.12214 -2.65425e-17 0)
(4.17657 -2.66521e-17 0)
(4.22775 -2.67835e-17 0)
(4.27602 -2.68595e-17 0)
(4.32169 -2.68443e-17 0)
(4.36502 -2.67892e-17 0)
(4.40622 -2.67409e-17 0)
(4.4455 -2.66911e-17 0)
(4.48301 -2.66614e-17 0)
(4.51891 -2.67219e-17 0)
(4.55332 -2.6839e-17 0)
(4.58637 -2.69475e-17 0)
(4.61815 -2.70484e-17 0)
(4.64875 -2.71422e-17 0)
(4.67826 -2.72296e-17 0)
(4.70676 -2.73111e-17 0)
(4.7343 -2.73871e-17 0)
(4.76096 -2.7458e-17 0)
(4.78678 -2.75242e-17 0)
(4.81181 -2.7586e-17 0)
(4.8361 -2.76437e-17 0)
(4.8597 -2.76976e-17 0)
(4.88264 -2.7748e-17 0)
(4.90496 -2.7795e-17 0)
(4.92669 -2.78389e-17 0)
(4.94785 -2.78799e-17 0)
(4.96849 -2.79181e-17 0)
(4.98862 -2.79537e-17 0)
(5.00827 -2.79869e-17 0)
(5.02746 -2.80178e-17 0)
(5.04622 -2.80465e-17 0)
(5.06455 -2.80731e-17 0)
(5.08249 -2.80978e-17 0)
(5.10004 -2.81205e-17 0)
(5.11723 -2.81415e-17 0)
(5.13407 -2.81608e-17 0)
(5.15057 -2.81784e-17 0)
(5.16675 -2.81945e-17 0)
(5.18262 -2.8209e-17 0)
(5.19819 -2.82221e-17 0)
(5.21348 -2.82339e-17 0)
(5.22848 -2.82442e-17 0)
(5.24323 -2.82534e-17 0)
(5.25771 -2.82612e-17 0)
(5.27195 -2.82679e-17 0)
(5.28595 -2.82734e-17 0)
(5.29971 -2.82778e-17 0)
(5.31326 -2.82811e-17 0)
(5.32659 -2.82835e-17 0)
(5.33971 -2.82848e-17 0)
(5.35263 -2.82851e-17 0)
(5.36535 -2.82845e-17 0)
(5.37789 -2.82831e-17 0)
(5.39024 -2.82807e-17 0)
(5.40242 -2.82776e-17 0)
(5.41442 -2.82736e-17 0)
(5.42626 -2.82689e-17 0)
(5.43793 -2.82634e-17 0)
(5.44945 -2.82573e-17 0)
(5.46081 -2.82504e-17 0)
(5.47203 -2.82429e-17 0)
(5.4831 -2.82348e-17 0)
(5.49403 -2.8226e-17 0)
(5.50483 -2.82167e-17 0)
(5.51549 -2.82068e-17 0)
(5.52602 -2.81963e-17 0)
(5.53643 -2.81854e-17 0)
(5.54671 -2.81739e-17 0)
(5.55688 -2.8162e-17 0)
(5.56693 -2.81496e-17 0)
(5.57687 -2.81368e-17 0)
(5.58669 -2.81235e-17 0)
(5.59641 -2.81098e-17 0)
(5.60603 -2.80957e-17 0)
(5.61554 -2.80812e-17 0)
(5.62495 -2.80662e-17 0)
(5.63426 -2.8051e-17 0)
(5.64348 -2.80353e-17 0)
(5.65261 -2.80193e-17 0)
(5.66164 -2.80028e-17 0)
(5.67059 -2.7986e-17 0)
(5.67945 -2.79689e-17 0)
(5.68822 -2.79513e-17 0)
(5.69692 -2.79333e-17 0)
(5.70553 -2.79149e-17 0)
(5.71406 -2.78961e-17 0)
(5.72252 -2.78769e-17 0)
(5.7309 -2.78572e-17 0)
(5.7392 -2.7837e-17 0)
(5.74743 -2.78163e-17 0)
(5.7556 -2.77951e-17 0)
(5.76369 -2.77734e-17 0)
(5.77171 -2.7751e-17 0)
(5.77967 -2.7728e-17 0)
(5.78757 -2.77043e-17 0)
(5.7954 -2.76799e-17 0)
(5.80316 -2.76547e-17 0)
(5.81087 -2.76286e-17 0)
(5.81852 -2.76016e-17 0)
(5.8261 -2.75734e-17 0)
(5.83363 -2.75441e-17 0)
(5.8411 -2.75133e-17 0)
(5.84852 -2.74807e-17 0)
(5.85589 -2.74461e-17 0)
(5.8632 -2.7409e-17 0)
(5.87045 -2.73686e-17 0)
(5.87766 -2.73242e-17 0)
(5.88482 -2.72746e-17 0)
(5.89192 -2.722e-17 0)
(5.89898 -2.71585e-17 0)
(5.90599 -2.7088e-17 0)
(5.91296 -2.70059e-17 0)
(5.91988 -2.69103e-17 0)
(5.92675 -2.67973e-17 0)
(5.93358 -2.66638e-17 0)
(5.94037 -2.65057e-17 0)
(5.94711 -2.63201e-17 0)
(5.95382 -2.61053e-17 0)
(5.96048 -2.586e-17 0)
(5.9671 -2.55854e-17 0)
(5.97368 -2.52114e-17 0)
(5.98022 -2.5444e-17 0)
(5.98673 -2.57145e-17 0)
(5.9932 -2.54652e-17 0)
(5.99963 -2.53508e-17 0)
(6.00602 -2.5254e-17 0)
(6.01238 -2.51798e-17 0)
(6.0187 -2.51267e-17 0)
(6.02499 -2.50924e-17 0)
(6.03125 -2.50721e-17 0)
(6.03747 -2.50627e-17 0)
(6.04366 -2.50596e-17 0)
(6.04982 -2.50595e-17 0)
(6.05594 -2.50588e-17 0)
(6.06204 -2.50547e-17 0)
(6.0681 -2.50445e-17 0)
(6.07413 -2.50258e-17 0)
(6.08014 -2.49966e-17 0)
(6.08611 -2.4955e-17 0)
(6.09206 -2.48993e-17 0)
(6.09798 -2.48279e-17 0)
(6.10387 -2.47397e-17 0)
(6.10973 -2.46335e-17 0)
(6.11557 -2.45096e-17 0)
(6.12138 -2.43682e-17 0)
(6.12716 -2.42105e-17 0)
(6.13292 -2.40382e-17 0)
(6.13866 -2.38549e-17 0)
(6.14436 -2.36653e-17 0)
(6.15005 -2.34765e-17 0)
(6.15571 -2.32887e-17 0)
(6.16135 -2.32273e-17 0)
(6.16696 -2.37895e-17 0)
(6.17255 -2.43475e-17 0)
(6.17812 -2.42773e-17 0)
(6.18366 -2.4077e-17 0)
(6.18918 -2.38713e-17 0)
(6.19469 -2.36607e-17 0)
(6.20017 -2.34521e-17 0)
(6.20562 -2.32503e-17 0)
(6.21106 -2.30585e-17 0)
(6.21648 -2.28792e-17 0)
(6.22188 -2.27134e-17 0)
(6.22726 -2.25613e-17 0)
(6.23262 -2.24226e-17 0)
(6.23796 -2.22965e-17 0)
(6.24328 -2.21818e-17 0)
(6.24858 -2.20773e-17 0)
(6.25386 -2.19815e-17 0)
(6.25913 -2.18932e-17 0)
(6.26438 -2.18107e-17 0)
(6.26963 -2.17318e-17 0)
(6.27488 -2.16549e-17 0)
(6.28013 -2.15782e-17 0)
(6.28538 -2.14998e-17 0)
(6.29063 -2.14176e-17 0)
(6.29588 -2.13286e-17 0)
(6.30113 -2.12301e-17 0)
(6.30637 -2.11178e-17 0)
(6.31162 -2.0986e-17 0)
(6.31686 -2.08269e-17 0)
(6.32209 -2.06304e-17 0)
(6.32732 -2.03767e-17 0)
(6.33254 -2.01766e-17 0)
(6.33775 -2.02696e-17 0)
(6.34295 -2.03186e-17 0)
(6.34815 -2.00345e-17 0)
(6.35333 -1.97024e-17 0)
(6.3585 -1.94301e-17 0)
(6.36366 -1.91981e-17 0)
(6.36882 -1.89958e-17 0)
(6.37396 -1.8816e-17 0)
(6.37908 -1.86536e-17 0)
(6.3842 -1.85049e-17 0)
(6.38931 -1.83671e-17 0)
(6.39441 -1.82383e-17 0)
(6.39949 -1.81168e-17 0)
(6.40457 -1.80009e-17 0)
(6.40963 -1.78901e-17 0)
(6.41468 -1.77834e-17 0)
(6.41972 -1.76799e-17 0)
(6.42476 -1.75791e-17 0)
(6.42978 -1.74805e-17 0)
(6.43479 -1.73837e-17 0)
(6.43979 -1.72884e-17 0)
(6.44477 -1.71944e-17 0)
(6.44975 -1.71015e-17 0)
(6.45472 -1.70102e-17 0)
(6.45968 -1.69203e-17 0)
(6.46463 -1.68317e-17 0)
(6.46956 -1.67439e-17 0)
(6.47449 -1.6657e-17 0)
(6.47941 -1.65708e-17 0)
(6.48432 -1.64859e-17 0)
(6.48921 -1.64023e-17 0)
(6.4941 -1.632e-17 0)
(6.49898 -1.62386e-17 0)
(6.50385 -1.61579e-17 0)
(6.50871 -1.60782e-17 0)
(6.51356 -1.59995e-17 0)
(6.51839 -1.59217e-17 0)
(6.52322 -1.58449e-17 0)
(6.52804 -1.57691e-17 0)
(6.53285 -1.56943e-17 0)
(6.53766 -1.56206e-17 0)
(6.54245 -1.55479e-17 0)
(6.54723 -1.54762e-17 0)
(6.552 -1.54056e-17 0)
(6.55677 -1.53359e-17 0)
(6.56152 -1.52672e-17 0)
(6.56626 -1.51994e-17 0)
(6.571 -1.51325e-17 0)
(6.57573 -1.50664e-17 0)
(6.58044 -1.50011e-17 0)
(6.58515 -1.49372e-17 0)
(6.58985 -1.48745e-17 0)
(6.59454 -1.48126e-17 0)
(6.59922 -1.47513e-17 0)
(6.60389 -1.46908e-17 0)
(6.60855 -1.46314e-17 0)
(6.61321 -1.45731e-17 0)
(6.61785 -1.4516e-17 0)
(6.62249 -1.44594e-17 0)
(6.62711 -1.44033e-17 0)
(6.63173 -1.43478e-17 0)
(6.63634 -1.42932e-17 0)
(6.64094 -1.42396e-17 0)
(6.64553 -1.41868e-17 0)
(6.65011 -1.41349e-17 0)
(6.65468 -1.40838e-17 0)
(6.65924 -1.40334e-17 0)
(6.6638 -1.39837e-17 0)
(6.66834 -1.39347e-17 0)
(6.67288 -1.38864e-17 0)
(6.67741 -1.38386e-17 0)
(6.68192 -1.37914e-17 0)
(6.68643 -1.37448e-17 0)
(6.69093 -1.36986e-17 0)
(6.69542 -1.36528e-17 0)
(6.69991 -1.36075e-17 0)
(6.70438 -1.35625e-17 0)
(6.70884 -1.35179e-17 0)
(6.7133 -1.34736e-17 0)
(6.71775 -1.34295e-17 0)
(6.72218 -1.33857e-17 0)
(6.72661 -1.33422e-17 0)
(6.73103 -1.32988e-17 0)
(6.73544 -1.32557e-17 0)
(6.73984 -1.32127e-17 0)
(6.74424 -1.31698e-17 0)
(6.74862 -1.3127e-17 0)
(6.75299 -1.30843e-17 0)
(6.75736 -1.30417e-17 0)
(6.76172 -1.29992e-17 0)
(6.76606 -1.29566e-17 0)
(6.7704 -1.29142e-17 0)
(6.77473 -1.28717e-17 0)
(6.77905 -1.28292e-17 0)
(6.78336 -1.27867e-17 0)
(6.78766 -1.27442e-17 0)
(6.79195 -1.27017e-17 0)
(6.79623 -1.26591e-17 0)
(6.80051 -1.26164e-17 0)
(6.80477 -1.25737e-17 0)
(6.80903 -1.2531e-17 0)
(6.81327 -1.24881e-17 0)
(6.81751 -1.24452e-17 0)
(6.82173 -1.24022e-17 0)
(6.82595 -1.23592e-17 0)
(6.83016 -1.2316e-17 0)
(6.83436 -1.22728e-17 0)
(6.83854 -1.22294e-17 0)
(6.84272 -1.2186e-17 0)
(6.84689 -1.21424e-17 0)
(6.85105 -1.20988e-17 0)
(6.8552 -1.20551e-17 0)
(6.85934 -1.20112e-17 0)
(6.86347 -1.19673e-17 0)
(6.86759 -1.19232e-17 0)
(6.8717 -1.18791e-17 0)
(6.8758 -1.18349e-17 0)
(6.87989 -1.17905e-17 0)
(6.88398 -1.17461e-17 0)
(6.88805 -1.17016e-17 0)
(6.89211 -1.1657e-17 0)
(6.89616 -1.16123e-17 0)
(6.90019 -1.15675e-17 0)
(6.90422 -1.15226e-17 0)
(6.90824 -1.14776e-17 0)
(6.91225 -1.14325e-17 0)
(6.91625 -1.13874e-17 0)
(6.92023 -1.13422e-17 0)
(6.92421 -1.12969e-17 0)
(6.92818 -1.12515e-17 0)
(6.93213 -1.1206e-17 0)
(6.93608 -1.11604e-17 0)
(6.94002 -1.11148e-17 0)
(6.94395 -1.1069e-17 0)
(6.94787 -1.10232e-17 0)
(6.95178 -1.09772e-17 0)
(6.95569 -1.09311e-17 0)
(6.95959 -1.08849e-17 0)
(6.96349 -1.08386e-17 0)
(6.96738 -1.07921e-17 0)
(6.97126 -1.07455e-17 0)
(6.97514 -1.06989e-17 0)
(6.979 -1.06522e-17 0)
(6.98285 -1.06055e-17 0)
(6.98667 -1.05589e-17 0)
(6.99046 -1.05125e-17 0)
(6.99422 -1.04663e-17 0)
(6.99793 -1.04206e-17 0)
(7.00157 -1.03755e-17 0)
(7.00515 -1.0331e-17 0)
(7.00864 -1.02873e-17 0)
(7.01206 -1.02445e-17 0)
(7.0154 -1.02025e-17 0)
(7.01869 -1.01609e-17 0)
(7.02194 -1.01196e-17 0)
(7.02519 -1.00783e-17 0)
(7.02841 -1.0037e-17 0)
(7.03163 -9.99576e-18 0)
(7.03483 -9.95453e-18 0)
(7.03801 -9.91332e-18 0)
(7.04118 -9.87213e-18 0)
(7.04433 -9.83097e-18 0)
(7.04747 -9.78984e-18 0)
(7.05059 -9.74873e-18 0)
(7.0537 -9.70766e-18 0)
(7.05679 -9.66661e-18 0)
(7.05987 -9.62559e-18 0)
(7.06293 -9.5846e-18 0)
(7.06598 -9.54364e-18 0)
(7.06901 -9.50271e-18 0)
(7.07203 -9.46181e-18 0)
(7.07503 -9.42094e-18 0)
(7.07801 -9.38011e-18 0)
(7.08098 -9.33931e-18 0)
(7.08393 -9.29854e-18 0)
(7.08687 -9.2578e-18 0)
(7.08979 -9.2171e-18 0)
(7.0927 -9.17643e-18 0)
(7.09559 -9.13579e-18 0)
(7.09846 -9.09519e-18 0)
(7.10132 -9.05462e-18 0)
(7.10416 -9.01408e-18 0)
(7.10698 -8.97358e-18 0)
(7.10979 -8.93312e-18 0)
(7.11258 -8.89269e-18 0)
(7.11535 -8.8523e-18 0)
(7.11811 -8.81194e-18 0)
(7.12085 -8.77161e-18 0)
(7.12357 -8.73133e-18 0)
(7.12628 -8.69108e-18 0)
(7.12897 -8.65086e-18 0)
(7.13164 -8.61068e-18 0)
(7.13429 -8.57054e-18 0)
(7.13693 -8.53044e-18 0)
(7.13954 -8.49037e-18 0)
(7.14214 -8.45034e-18 0)
(7.14473 -8.41034e-18 0)
(7.14729 -8.37039e-18 0)
(7.14984 -8.33047e-18 0)
(7.15236 -8.29059e-18 0)
(7.15487 -8.25074e-18 0)
(7.15736 -8.21094e-18 0)
(7.15983 -8.17117e-18 0)
(7.16229 -8.13145e-18 0)
(7.16472 -8.09176e-18 0)
(7.16713 -8.05211e-18 0)
(7.16953 -8.0125e-18 0)
(7.1719 -7.97293e-18 0)
(7.17426 -7.93341e-18 0)
(7.17659 -7.89392e-18 0)
(7.17891 -7.85447e-18 0)
(7.1812 -7.81507e-18 0)
(7.18348 -7.77571e-18 0)
(7.18573 -7.73639e-18 0)
(7.18797 -7.69711e-18 0)
(7.19018 -7.65787e-18 0)
(7.19237 -7.61868e-18 0)
(7.19454 -7.57953e-18 0)
(7.19669 -7.54043e-18 0)
(7.19882 -7.50137e-18 0)
(7.20093 -7.46236e-18 0)
(7.20302 -7.4234e-18 0)
(7.20508 -7.38448e-18 0)
(7.20712 -7.34561e-18 0)
(7.20914 -7.30679e-18 0)
(7.21114 -7.26801e-18 0)
(7.21311 -7.22929e-18 0)
(7.21506 -7.19062e-18 0)
(7.21699 -7.15199e-18 0)
(7.2189 -7.11342e-18 0)
(7.22078 -7.0749e-18 0)
(7.22264 -7.03644e-18 0)
(7.22447 -6.99803e-18 0)
(7.22628 -6.95968e-18 0)
(7.22807 -6.92138e-18 0)
(7.22983 -6.88314e-18 0)
(7.23157 -6.84495e-18 0)
(7.23329 -6.80683e-18 0)
(7.23498 -6.76877e-18 0)
(7.23664 -6.73077e-18 0)
(7.23828 -6.69283e-18 0)
(7.2399 -6.65495e-18 0)
(7.24148 -6.61714e-18 0)
(7.24305 -6.5794e-18 0)
(7.24459 -6.54172e-18 0)
(7.2461 -6.50411e-18 0)
(7.24758 -6.46657e-18 0)
(7.24904 -6.4291e-18 0)
(7.25048 -6.39171e-18 0)
(7.25188 -6.35439e-18 0)
(7.25326 -6.31714e-18 0)
(7.25462 -6.27997e-18 0)
(7.25594 -6.24288e-18 0)
(7.25724 -6.20586e-18 0)
(7.25851 -6.16893e-18 0)
(7.25976 -6.13207e-18 0)
(7.26098 -6.0953e-18 0)
(7.26216 -6.0586e-18 0)
(7.26333 -6.02199e-18 0)
(7.26446 -5.98547e-18 0)
(7.26556 -5.94903e-18 0)
(7.26664 -5.91268e-18 0)
(7.26769 -5.87641e-18 0)
(7.26871 -5.84024e-18 0)
(7.2697 -5.80416e-18 0)
(7.27066 -5.76816e-18 0)
(7.2716 -5.73226e-18 0)
(7.2725 -5.69646e-18 0)
(7.27338 -5.66074e-18 0)
(7.27423 -5.62513e-18 0)
(7.27504 -5.58961e-18 0)
(7.27583 -5.55419e-18 0)
(7.27659 -5.51887e-18 0)
(7.27732 -5.48366e-18 0)
(7.27802 -5.44854e-18 0)
(7.27869 -5.41353e-18 0)
(7.27933 -5.37863e-18 0)
(7.27994 -5.34383e-18 0)
(7.28052 -5.30914e-18 0)
(7.28107 -5.27456e-18 0)
(7.28159 -5.24008e-18 0)
(7.28208 -5.20572e-18 0)
(7.28254 -5.17148e-18 0)
(7.28297 -5.13734e-18 0)
(7.28337 -5.10328e-18 0)
(7.28373 -5.06928e-18 0)
(7.28407 -5.03535e-18 0)
(7.28438 -5.00149e-18 0)
(7.28466 -4.9677e-18 0)
(7.2849 -4.93398e-18 0)
(7.28512 -4.90034e-18 0)
(7.2853 -4.8668e-18 0)
(7.28546 -4.83336e-18 0)
(7.28558 -4.80002e-18 0)
(7.28567 -4.76677e-18 0)
(7.28573 -4.73362e-18 0)
(7.28576 -4.70056e-18 0)
(7.28576 -4.6676e-18 0)
(7.28573 -4.63475e-18 0)
(7.28567 -4.60199e-18 0)
(7.28558 -4.56934e-18 0)
(7.28546 -4.53678e-18 0)
(7.2853 -4.50434e-18 0)
(7.28512 -4.47201e-18 0)
(7.2849 -4.4398e-18 0)
(7.28466 -4.40768e-18 0)
(7.28438 -4.37565e-18 0)
(7.28407 -4.34372e-18 0)
(7.28374 -4.31188e-18 0)
(7.28337 -4.28014e-18 0)
(7.28297 -4.2485e-18 0)
(7.28254 -4.21696e-18 0)
(7.28208 -4.18556e-18 0)
(7.28159 -4.15432e-18 0)
(7.28107 -4.12322e-18 0)
(7.28052 -4.09228e-18 0)
(7.27994 -4.06149e-18 0)
(7.27933 -4.03086e-18 0)
(7.27869 -4.00037e-18 0)
(7.27802 -3.97005e-18 0)
(7.27732 -3.93988e-18 0)
(7.27659 -3.90986e-18 0)
(7.27583 -3.88e-18 0)
(7.27505 -3.8503e-18 0)
(7.27423 -3.82076e-18 0)
(7.27338 -3.79138e-18 0)
(7.27251 -3.76216e-18 0)
(7.2716 -3.7331e-18 0)
(7.27067 -3.7042e-18 0)
(7.2697 -3.67546e-18 0)
(7.26871 -3.64689e-18 0)
(7.26769 -3.61847e-18 0)
(7.26664 -3.59022e-18 0)
(7.26557 -3.56214e-18 0)
(7.26446 -3.53421e-18 0)
(7.26333 -3.50646e-18 0)
(7.26217 -3.47886e-18 0)
(7.26098 -3.45143e-18 0)
(7.25976 -3.42417e-18 0)
(7.25852 -3.39707e-18 0)
(7.25724 -3.37014e-18 0)
(7.25594 -3.34338e-18 0)
(7.25462 -3.31678e-18 0)
(7.25327 -3.29034e-18 0)
(7.25189 -3.26407e-18 0)
(7.25048 -3.23797e-18 0)
(7.24904 -3.21204e-18 0)
(7.24759 -3.18627e-18 0)
(7.2461 -3.16067e-18 0)
(7.24459 -3.13524e-18 0)
(7.24305 -3.10997e-18 0)
(7.24149 -3.08487e-18 0)
(7.2399 -3.05994e-18 0)
(7.23828 -3.03518e-18 0)
(7.23664 -3.01059e-18 0)
(7.23498 -2.98616e-18 0)
(7.23329 -2.96191e-18 0)
(7.23157 -2.93782e-18 0)
(7.22984 -2.9139e-18 0)
(7.22807 -2.89014e-18 0)
(7.22628 -2.86656e-18 0)
(7.22447 -2.84314e-18 0)
(7.22264 -2.81989e-18 0)
(7.22078 -2.79681e-18 0)
(7.2189 -2.77389e-18 0)
(7.21699 -2.75114e-18 0)
(7.21506 -2.72856e-18 0)
(7.21311 -2.70614e-18 0)
(7.21114 -2.68389e-18 0)
(7.20914 -2.6618e-18 0)
(7.20712 -2.63988e-18 0)
(7.20508 -2.61812e-18 0)
(7.20302 -2.59653e-18 0)
(7.20093 -2.5751e-18 0)
(7.19883 -2.55383e-18 0)
(7.1967 -2.53272e-18 0)
(7.19455 -2.51178e-18 0)
(7.19238 -2.491e-18 0)
(7.19018 -2.47037e-18 0)
(7.18797 -2.44991e-18 0)
(7.18574 -2.42961e-18 0)
(7.18348 -2.40947e-18 0)
(7.18121 -2.38948e-18 0)
(7.17891 -2.36965e-18 0)
(7.1766 -2.34998e-18 0)
(7.17426 -2.33046e-18 0)
(7.1719 -2.3111e-18 0)
(7.16953 -2.29189e-18 0)
(7.16713 -2.27284e-18 0)
(7.16472 -2.25394e-18 0)
(7.16229 -2.23519e-18 0)
(7.15984 -2.21659e-18 0)
(7.15736 -2.19814e-18 0)
(7.15487 -2.17985e-18 0)
(7.15237 -2.1617e-18 0)
(7.14984 -2.1437e-18 0)
(7.14729 -2.12584e-18 0)
(7.14473 -2.10814e-18 0)
(7.14215 -2.09057e-18 0)
(7.13955 -2.07315e-18 0)
(7.13693 -2.05588e-18 0)
(7.13429 -2.03875e-18 0)
(7.13164 -2.02176e-18 0)
(7.12897 -2.00491e-18 0)
(7.12628 -1.9882e-18 0)
(7.12358 -1.97163e-18 0)
(7.12085 -1.95519e-18 0)
(7.11811 -1.9389e-18 0)
(7.11536 -1.92274e-18 0)
(7.11258 -1.90671e-18 0)
(7.10979 -1.89082e-18 0)
(7.10698 -1.87506e-18 0)
(7.10416 -1.85944e-18 0)
(7.10132 -1.84394e-18 0)
(7.09846 -1.82858e-18 0)
(7.09559 -1.81334e-18 0)
(7.0927 -1.79824e-18 0)
(7.0898 -1.78326e-18 0)
(7.08687 -1.7684e-18 0)
(7.08394 -1.75368e-18 0)
(7.08098 -1.73907e-18 0)
(7.07802 -1.7246e-18 0)
(7.07503 -1.71024e-18 0)
(7.07203 -1.696e-18 0)
(7.06901 -1.68189e-18 0)
(7.06598 -1.66789e-18 0)
(7.06294 -1.65402e-18 0)
(7.05987 -1.64026e-18 0)
(7.0568 -1.62662e-18 0)
(7.0537 -1.61309e-18 0)
(7.05059 -1.59968e-18 0)
(7.04747 -1.58638e-18 0)
(7.04433 -1.5732e-18 0)
(7.04118 -1.56012e-18 0)
(7.03801 -1.54716e-18 0)
(7.03483 -1.53431e-18 0)
(7.03163 -1.52157e-18 0)
(7.02842 -1.50893e-18 0)
(7.02519 -1.4964e-18 0)
(7.02195 -1.48398e-18 0)
(7.01869 -1.47167e-18 0)
(7.0154 -1.4594e-18 0)
(7.01206 -1.44709e-18 0)
(7.00865 -1.43466e-18 0)
(7.00515 -1.4221e-18 0)
(7.00157 -1.40941e-18 0)
(6.99793 -1.39663e-18 0)
(6.99422 -1.3838e-18 0)
(6.99047 -1.37095e-18 0)
(6.98667 -1.35811e-18 0)
(6.98285 -1.34533e-18 0)
(6.979 -1.33262e-18 0)
(6.97514 -1.32001e-18 0)
(6.97127 -1.30751e-18 0)
(6.96738 -1.29512e-18 0)
(6.96349 -1.28285e-18 0)
(6.9596 -1.27071e-18 0)
(6.95569 -1.25869e-18 0)
(6.95179 -1.24679e-18 0)
(6.94787 -1.235e-18 0)
(6.94395 -1.22334e-18 0)
(6.94002 -1.21178e-18 0)
(6.93608 -1.20034e-18 0)
(6.93214 -1.189e-18 0)
(6.92818 -1.17776e-18 0)
(6.92421 -1.16662e-18 0)
(6.92024 -1.15559e-18 0)
(6.91625 -1.14465e-18 0)
(6.91225 -1.13381e-18 0)
(6.90824 -1.12306e-18 0)
(6.90423 -1.11241e-18 0)
(6.9002 -1.10186e-18 0)
(6.89616 -1.09139e-18 0)
(6.89211 -1.08103e-18 0)
(6.88805 -1.07075e-18 0)
(6.88398 -1.06056e-18 0)
(6.8799 -1.05047e-18 0)
(6.87581 -1.04047e-18 0)
(6.87171 -1.03055e-18 0)
(6.8676 -1.02073e-18 0)
(6.86347 -1.01099e-18 0)
(6.85934 -1.00134e-18 0)
(6.8552 -9.91778e-19 0)
(6.85105 -9.82302e-19 0)
(6.84689 -9.72912e-19 0)
(6.84273 -9.63607e-19 0)
(6.83855 -9.54386e-19 0)
(6.83436 -9.45249e-19 0)
(6.83016 -9.36195e-19 0)
(6.82595 -9.27223e-19 0)
(6.82174 -9.18333e-19 0)
(6.81751 -9.09523e-19 0)
(6.81327 -9.00794e-19 0)
(6.80903 -8.92145e-19 0)
(6.80477 -8.83575e-19 0)
(6.80051 -8.75083e-19 0)
(6.79624 -8.66669e-19 0)
(6.79195 -8.58332e-19 0)
(6.78766 -8.50071e-19 0)
(6.78336 -8.41887e-19 0)
(6.77905 -8.33777e-19 0)
(6.77473 -8.25743e-19 0)
(6.7704 -8.17782e-19 0)
(6.76606 -8.09895e-19 0)
(6.76172 -8.0208e-19 0)
(6.75736 -7.94338e-19 0)
(6.753 -7.86667e-19 0)
(6.74862 -7.79068e-19 0)
(6.74424 -7.71539e-19 0)
(6.73985 -7.6408e-19 0)
(6.73544 -7.5669e-19 0)
(6.73103 -7.49369e-19 0)
(6.72661 -7.42116e-19 0)
(6.72219 -7.34931e-19 0)
(6.71775 -7.27813e-19 0)
(6.7133 -7.20761e-19 0)
(6.70885 -7.13775e-19 0)
(6.70438 -7.06855e-19 0)
(6.69991 -7e-19 0)
(6.69543 -6.93209e-19 0)
(6.69093 -6.86481e-19 0)
(6.68643 -6.79817e-19 0)
(6.68192 -6.73216e-19 0)
(6.67741 -6.66677e-19 0)
(6.67288 -6.602e-19 0)
(6.66834 -6.53784e-19 0)
(6.6638 -6.47429e-19 0)
(6.65924 -6.41133e-19 0)
(6.65468 -6.34898e-19 0)
(6.65011 -6.28722e-19 0)
(6.64553 -6.22604e-19 0)
(6.64094 -6.16545e-19 0)
(6.63634 -6.10543e-19 0)
(6.63173 -6.04599e-19 0)
(6.62711 -5.98711e-19 0)
(6.62249 -5.9288e-19 0)
(6.61785 -5.87104e-19 0)
(6.61321 -5.81384e-19 0)
(6.60855 -5.75719e-19 0)
(6.60389 -5.70108e-19 0)
(6.59922 -5.64551e-19 0)
(6.59454 -5.59048e-19 0)
(6.58985 -5.53597e-19 0)
(6.58515 -5.482e-19 0)
(6.58044 -5.42854e-19 0)
(6.57573 -5.37561e-19 0)
(6.571 -5.32318e-19 0)
(6.56626 -5.27127e-19 0)
(6.56152 -5.21985e-19 0)
(6.55677 -5.16894e-19 0)
(6.552 -5.11853e-19 0)
(6.54723 -5.06861e-19 0)
(6.54245 -5.01917e-19 0)
(6.53766 -4.97022e-19 0)
(6.53285 -4.92175e-19 0)
(6.52804 -4.87375e-19 0)
(6.52322 -4.82623e-19 0)
(6.51839 -4.77917e-19 0)
(6.51356 -4.73257e-19 0)
(6.50871 -4.68644e-19 0)
(6.50385 -4.64076e-19 0)
(6.49898 -4.59553e-19 0)
(6.4941 -4.55075e-19 0)
(6.48921 -4.50641e-19 0)
(6.48432 -4.46252e-19 0)
(6.47941 -4.41906e-19 0)
(6.47449 -4.37603e-19 0)
(6.46956 -4.33343e-19 0)
(6.46463 -4.29126e-19 0)
(6.45968 -4.24951e-19 0)
(6.45472 -4.20818e-19 0)
(6.44975 -4.16726e-19 0)
(6.44477 -4.12675e-19 0)
(6.43978 -4.08665e-19 0)
(6.43479 -4.04695e-19 0)
(6.42978 -4.00765e-19 0)
(6.42475 -3.96875e-19 0)
(6.41972 -3.93025e-19 0)
(6.41468 -3.89213e-19 0)
(6.40963 -3.8544e-19 0)
(6.40457 -3.81706e-19 0)
(6.39949 -3.78009e-19 0)
(6.39441 -3.7435e-19 0)
(6.38931 -3.70729e-19 0)
(6.3842 -3.67144e-19 0)
(6.37908 -3.63597e-19 0)
(6.37395 -3.60086e-19 0)
(6.36881 -3.56612e-19 0)
(6.36366 -3.53174e-19 0)
(6.3585 -3.49772e-19 0)
(6.35333 -3.46406e-19 0)
(6.34815 -3.43075e-19 0)
(6.34295 -3.39781e-19 0)
(6.33775 -3.36522e-19 0)
(6.33254 -3.33299e-19 0)
(6.32732 -3.30112e-19 0)
(6.32209 -3.26962e-19 0)
(6.31686 -3.23848e-19 0)
(6.31162 -3.2077e-19 0)
(6.30637 -3.1773e-19 0)
(6.30113 -3.14728e-19 0)
(6.29588 -3.11764e-19 0)
(6.29063 -3.08838e-19 0)
(6.28538 -3.05951e-19 0)
(6.28013 -3.03103e-19 0)
(6.27488 -3.00294e-19 0)
(6.26963 -2.97522e-19 0)
(6.26438 -2.94788e-19 0)
(6.25913 -2.92087e-19 0)
(6.25386 -2.89417e-19 0)
(6.24858 -2.86776e-19 0)
(6.24328 -2.84161e-19 0)
(6.23796 -2.81574e-19 0)
(6.23262 -2.79013e-19 0)
(6.22726 -2.76478e-19 0)
(6.22188 -2.7397e-19 0)
(6.21648 -2.71488e-19 0)
(6.21106 -2.69032e-19 0)
(6.20562 -2.66601e-19 0)
(6.20016 -2.64195e-19 0)
(6.19468 -2.61815e-19 0)
(6.18918 -2.59459e-19 0)
(6.18366 -2.57128e-19 0)
(6.17811 -2.54821e-19 0)
(6.17255 -2.52538e-19 0)
(6.16696 -2.50279e-19 0)
(6.16134 -2.48044e-19 0)
(6.15571 -2.45832e-19 0)
(6.15005 -2.43643e-19 0)
(6.14436 -2.41477e-19 0)
(6.13865 -2.39334e-19 0)
(6.13292 -2.37214e-19 0)
(6.12716 -2.35115e-19 0)
(6.12138 -2.33039e-19 0)
(6.11557 -2.30985e-19 0)
(6.10973 -2.28953e-19 0)
(6.10387 -2.26942e-19 0)
(6.09798 -2.24952e-19 0)
(6.09206 -2.22983e-19 0)
(6.08611 -2.21035e-19 0)
(6.08014 -2.19108e-19 0)
(6.07413 -2.17201e-19 0)
(6.0681 -2.15315e-19 0)
(6.06203 -2.13448e-19 0)
(6.05594 -2.11602e-19 0)
(6.04981 -2.09775e-19 0)
(6.04366 -2.07968e-19 0)
(6.03747 -2.0618e-19 0)
(6.03124 -2.04411e-19 0)
(6.02499 -2.02661e-19 0)
(6.0187 -2.00929e-19 0)
(6.01238 -1.99217e-19 0)
(6.00602 -1.97522e-19 0)
(5.99962 -1.95846e-19 0)
(5.99319 -1.94188e-19 0)
(5.98673 -1.92548e-19 0)
(5.98022 -1.90926e-19 0)
(5.97368 -1.89321e-19 0)
(5.9671 -1.87733e-19 0)
(5.96047 -1.86162e-19 0)
(5.95381 -1.84609e-19 0)
(5.94711 -1.83072e-19 0)
(5.94037 -1.81552e-19 0)
(5.93358 -1.80048e-19 0)
(5.92675 -1.78561e-19 0)
(5.91988 -1.7709e-19 0)
(5.91296 -1.75635e-19 0)
(5.90599 -1.74196e-19 0)
(5.89898 -1.72772e-19 0)
(5.89192 -1.71364e-19 0)
(5.88481 -1.69971e-19 0)
(5.87766 -1.68594e-19 0)
(5.87045 -1.67231e-19 0)
(5.86319 -1.65884e-19 0)
(5.85588 -1.64551e-19 0)
(5.84852 -1.63233e-19 0)
(5.8411 -1.61929e-19 0)
(5.83363 -1.60639e-19 0)
(5.8261 -1.59364e-19 0)
(5.81851 -1.58102e-19 0)
(5.81087 -1.56855e-19 0)
(5.80316 -1.55621e-19 0)
(5.79539 -1.544e-19 0)
(5.78756 -1.53193e-19 0)
(5.77967 -1.52e-19 0)
(5.77171 -1.50819e-19 0)
(5.76369 -1.49651e-19 0)
(5.75559 -1.48496e-19 0)
(5.74743 -1.47354e-19 0)
(5.7392 -1.46225e-19 0)
(5.73089 -1.45107e-19 0)
(5.72251 -1.44002e-19 0)
(5.71406 -1.42909e-19 0)
(5.70553 -1.41828e-19 0)
(5.69691 -1.40759e-19 0)
(5.68822 -1.39701e-19 0)
(5.67945 -1.38655e-19 0)
(5.67059 -1.37621e-19 0)
(5.66164 -1.36598e-19 0)
(5.6526 -1.35585e-19 0)
(5.64348 -1.34584e-19 0)
(5.63426 -1.33594e-19 0)
(5.62495 -1.32614e-19 0)
(5.61553 -1.31645e-19 0)
(5.60602 -1.30686e-19 0)
(5.59641 -1.29738e-19 0)
(5.58669 -1.28799e-19 0)
(5.57686 -1.27871e-19 0)
(5.56693 -1.26952e-19 0)
(5.55688 -1.26043e-19 0)
(5.54671 -1.25144e-19 0)
(5.53643 -1.24254e-19 0)
(5.52602 -1.23374e-19 0)
(5.51549 -1.22502e-19 0)
(5.50482 -1.21639e-19 0)
(5.49403 -1.20786e-19 0)
(5.4831 -1.19941e-19 0)
(5.47203 -1.19104e-19 0)
(5.46081 -1.18276e-19 0)
(5.44945 -1.17456e-19 0)
(5.43793 -1.16643e-19 0)
(5.42625 -1.15839e-19 0)
(5.41442 -1.15043e-19 0)
(5.40241 -1.14254e-19 0)
(5.39024 -1.13472e-19 0)
(5.37789 -1.12697e-19 0)
(5.36535 -1.1193e-19 0)
(5.35263 -1.11169e-19 0)
(5.33971 -1.10415e-19 0)
(5.32658 -1.09668e-19 0)
(5.31326 -1.08926e-19 0)
(5.29971 -1.08191e-19 0)
(5.28594 -1.07461e-19 0)
(5.27194 -1.06737e-19 0)
(5.25771 -1.06019e-19 0)
(5.24322 -1.05305e-19 0)
(5.22848 -1.04597e-19 0)
(5.21347 -1.03893e-19 0)
(5.19819 -1.03194e-19 0)
(5.18262 -1.02499e-19 0)
(5.16675 -1.01808e-19 0)
(5.15057 -1.0112e-19 0)
(5.13407 -1.00436e-19 0)
(5.11723 -9.97548e-20 0)
(5.10004 -9.90763e-20 0)
(5.08249 -9.84002e-20 0)
(5.06455 -9.7726e-20 0)
(5.04621 -9.70535e-20 0)
(5.02746 -9.63823e-20 0)
(5.00827 -9.57118e-20 0)
(4.98862 -9.50418e-20 0)
(4.96849 -9.43716e-20 0)
(4.94785 -9.37009e-20 0)
(4.92668 -9.30291e-20 0)
(4.90496 -9.23555e-20 0)
(4.88264 -9.16797e-20 0)
(4.8597 -9.10009e-20 0)
(4.8361 -9.03185e-20 0)
(4.81181 -8.96317e-20 0)
(4.78677 -8.89397e-20 0)
(4.76095 -8.82416e-20 0)
(4.7343 -8.75365e-20 0)
(4.70676 -8.68232e-20 0)
(4.67826 -8.61007e-20 0)
(4.64875 -8.53677e-20 0)
(4.61814 -8.46228e-20 0)
(4.58636 -8.38645e-20 0)
(4.55332 -8.3091e-20 0)
(4.5189 -8.23005e-20 0)
(4.48301 -8.14909e-20 0)
(4.44549 -8.06598e-20 0)
(4.40622 -7.98044e-20 0)
(4.36502 -7.89218e-20 0)
(4.32169 -7.80084e-20 0)
(4.27602 -7.70601e-20 0)
(4.22775 -7.60725e-20 0)
(4.17657 -7.50399e-20 0)
(4.12214 -7.39561e-20 0)
(4.06403 -7.28135e-20 0)
(4.00173 -7.16032e-20 0)
(3.93465 -7.03141e-20 0)
(3.86195 -6.89317e-20 0)
(3.78257 -6.74365e-20 0)
(3.6952 -6.58054e-20 0)
(3.59826 -6.40102e-20 0)
(3.48974 -6.20154e-20 0)
(3.36706 -5.97752e-20 0)
(3.22682 -5.72295e-20 0)
(3.06453 -5.42991e-20 0)
(2.87422 -5.0879e-20 0)
(2.64796 -4.68293e-20 0)
(2.37371 -4.19386e-20 0)
(2.03719 -3.59564e-20 0)
(1.63422 -2.88128e-20 0)
(1.18298 -2.0834e-20 0)
(0.712442 -1.2533e-20 0)
(0.237856 -4.17864e-21 0)
)
;

boundaryField
{
    top_wall
    {
        type            noSlip;
    }
    inlet
    {
        type            cyclic;
    }
    bot_wall
    {
        type            noSlip;
    }
    outlet
    {
        type            cyclic;
    }
    frontAndBack
    {
        type            empty;
    }
}


// ************************************************************************* //
