# Wall shear stress
# Time          	patch           	min             	max             
0.5             	top_wall	(-4.72458187e-02 3.17507228e-27 0.00000000e+00)	(-4.72458187e-02 3.17507228e-27 0.00000000e+00)
0.5             	bot_wall	(-4.72459085e-02 1.28862565e-18 0.00000000e+00)	(-4.72459085e-02 1.28862565e-18 0.00000000e+00)
1               	top_wall	(-4.57604153e-02 4.04558368e-27 0.00000000e+00)	(-4.57604153e-02 4.04558368e-27 0.00000000e+00)
1               	bot_wall	(-4.57603915e-02 1.45255432e-18 0.00000000e+00)	(-4.57603915e-02 1.45255432e-18 0.00000000e+00)
1.5             	top_wall	(-4.48492323e-02 4.82020964e-27 0.00000000e+00)	(-4.48492323e-02 4.82020964e-27 0.00000000e+00)
1.5             	bot_wall	(-4.48491767e-02 3.50702807e-18 0.00000000e+00)	(-4.48491767e-02 3.50702807e-18 0.00000000e+00)
2               	top_wall	(-4.42372581e-02 6.05753621e-27 0.00000000e+00)	(-4.42372581e-02 6.05753621e-27 0.00000000e+00)
2               	bot_wall	(-4.42372071e-02 1.47286621e-18 0.00000000e+00)	(-4.42372071e-02 1.47286621e-18 0.00000000e+00)
2.5             	top_wall	(-4.38021699e-02 6.12274289e-27 0.00000000e+00)	(-4.38021699e-02 6.12274289e-27 0.00000000e+00)
2.5             	bot_wall	(-4.38021245e-02 2.87467193e-18 0.00000000e+00)	(-4.38021245e-02 2.87467193e-18 0.00000000e+00)
3               	top_wall	(-4.34827684e-02 6.71012999e-27 0.00000000e+00)	(-4.34827684e-02 6.71012999e-27 0.00000000e+00)
3               	bot_wall	(-4.34827287e-02 1.58466039e-18 0.00000000e+00)	(-4.34827287e-02 1.58466039e-18 0.00000000e+00)
3.5             	top_wall	(-4.32444869e-02 8.22165853e-27 0.00000000e+00)	(-4.32444869e-02 8.22165853e-27 0.00000000e+00)
3.5             	bot_wall	(-4.32444555e-02 1.10520704e-18 0.00000000e+00)	(-4.32444555e-02 1.10520704e-18 0.00000000e+00)
4               	top_wall	(-4.30660160e-02 8.61281384e-27 0.00000000e+00)	(-4.30660160e-02 8.61281384e-27 0.00000000e+00)
4               	bot_wall	(-4.30659945e-02 1.01360661e-18 0.00000000e+00)	(-4.30659945e-02 1.01360661e-18 0.00000000e+00)
4.5             	top_wall	(-4.29333682e-02 1.11795206e-26 0.00000000e+00)	(-4.29333682e-02 1.11795206e-26 0.00000000e+00)
4.5             	bot_wall	(-4.29333561e-02 1.13514099e-18 0.00000000e+00)	(-4.29333561e-02 1.13514099e-18 0.00000000e+00)
5               	top_wall	(-4.28368942e-02 2.14236516e-26 0.00000000e+00)	(-4.28368942e-02 2.14236516e-26 0.00000000e+00)
5               	bot_wall	(-4.28368897e-02 -4.07062416e-19 0.00000000e+00)	(-4.28368897e-02 -4.07062416e-19 0.00000000e+00)
5.5             	top_wall	(-4.27696724e-02 6.99787923e-26 0.00000000e+00)	(-4.27696724e-02 6.99787923e-26 0.00000000e+00)
5.5             	bot_wall	(-4.27696738e-02 6.40650357e-19 0.00000000e+00)	(-4.27696738e-02 6.40650357e-19 0.00000000e+00)
6               	top_wall	(-4.27265961e-02 2.19793949e-25 0.00000000e+00)	(-4.27265961e-02 2.19793949e-25 0.00000000e+00)
6               	bot_wall	(-4.27266019e-02 2.27232409e-18 0.00000000e+00)	(-4.27266019e-02 2.27232409e-18 0.00000000e+00)
6.5             	top_wall	(-4.27038012e-02 6.00527964e-25 0.00000000e+00)	(-4.27038012e-02 6.00527964e-25 0.00000000e+00)
6.5             	bot_wall	(-4.27038105e-02 1.10587401e-18 0.00000000e+00)	(-4.27038105e-02 1.10587401e-18 0.00000000e+00)
7               	top_wall	(-4.26982999e-02 1.44157257e-24 0.00000000e+00)	(-4.26982999e-02 1.44157257e-24 0.00000000e+00)
7               	bot_wall	(-4.26983118e-02 1.00253093e-19 0.00000000e+00)	(-4.26983118e-02 1.00253093e-19 0.00000000e+00)
7.5             	top_wall	(-4.27077431e-02 3.07026474e-24 0.00000000e+00)	(-4.27077431e-02 3.07026474e-24 0.00000000e+00)
7.5             	bot_wall	(-4.27077572e-02 2.16052045e-19 0.00000000e+00)	(-4.27077572e-02 2.16052045e-19 0.00000000e+00)
8               	top_wall	(-4.27302720e-02 5.92169896e-24 0.00000000e+00)	(-4.27302720e-02 5.92169896e-24 0.00000000e+00)
8               	bot_wall	(-4.27302881e-02 -4.39258037e-19 0.00000000e+00)	(-4.27302881e-02 -4.39258037e-19 0.00000000e+00)
8.5             	top_wall	(-4.27644097e-02 1.05052570e-23 0.00000000e+00)	(-4.27644097e-02 1.05052570e-23 0.00000000e+00)
8.5             	bot_wall	(-4.27644275e-02 1.08680500e-18 0.00000000e+00)	(-4.27644275e-02 1.08680500e-18 0.00000000e+00)
9               	top_wall	(-4.28089935e-02 1.73757335e-23 0.00000000e+00)	(-4.28089935e-02 1.73757335e-23 0.00000000e+00)
9               	bot_wall	(-4.28090128e-02 -5.26130350e-19 0.00000000e+00)	(-4.28090128e-02 -5.26130350e-19 0.00000000e+00)
9.5             	top_wall	(-4.28631427e-02 2.70906124e-23 0.00000000e+00)	(-4.28631427e-02 2.70906124e-23 0.00000000e+00)
9.5             	bot_wall	(-4.28631632e-02 -1.03223301e-18 0.00000000e+00)	(-4.28631632e-02 -1.03223301e-18 0.00000000e+00)
10              	top_wall	(-4.29262492e-02 4.01708982e-23 0.00000000e+00)	(-4.29262492e-02 4.01708982e-23 0.00000000e+00)
10              	bot_wall	(-4.29262708e-02 1.71428935e-18 0.00000000e+00)	(-4.29262708e-02 1.71428935e-18 0.00000000e+00)
10.5            	top_wall	(-4.29979698e-02 5.70810834e-23 0.00000000e+00)	(-4.29979698e-02 5.70810834e-23 0.00000000e+00)
10.5            	bot_wall	(-4.29979924e-02 1.35256019e-18 0.00000000e+00)	(-4.29979924e-02 1.35256019e-18 0.00000000e+00)
11              	top_wall	(-4.30781961e-02 7.82037948e-23 0.00000000e+00)	(-4.30781961e-02 7.82037948e-23 0.00000000e+00)
11              	bot_wall	(-4.30782195e-02 1.20634764e-18 0.00000000e+00)	(-4.30782195e-02 1.20634764e-18 0.00000000e+00)
11.5            	top_wall	(-4.31669749e-02 1.03839721e-22 0.00000000e+00)	(-4.31669749e-02 1.03839721e-22 0.00000000e+00)
11.5            	bot_wall	(-4.31669988e-02 1.90702624e-18 0.00000000e+00)	(-4.31669988e-02 1.90702624e-18 0.00000000e+00)
12              	top_wall	(-4.32643613e-02 1.34209234e-22 0.00000000e+00)	(-4.32643613e-02 1.34209234e-22 0.00000000e+00)
12              	bot_wall	(-4.32643855e-02 8.92095030e-20 0.00000000e+00)	(-4.32643855e-02 8.92095030e-20 0.00000000e+00)
12.5            	top_wall	(-4.33702301e-02 1.69447092e-22 0.00000000e+00)	(-4.33702301e-02 1.69447092e-22 0.00000000e+00)
12.5            	bot_wall	(-4.33702546e-02 1.16849643e-18 0.00000000e+00)	(-4.33702546e-02 1.16849643e-18 0.00000000e+00)
13              	top_wall	(-4.34841278e-02 2.09604394e-22 0.00000000e+00)	(-4.34841278e-02 2.09604394e-22 0.00000000e+00)
13              	bot_wall	(-4.34841522e-02 1.20162680e-18 0.00000000e+00)	(-4.34841522e-02 1.20162680e-18 0.00000000e+00)
13.5            	top_wall	(-4.36052389e-02 2.54670270e-22 0.00000000e+00)	(-4.36052389e-02 2.54670270e-22 0.00000000e+00)
13.5            	bot_wall	(-4.36052630e-02 1.37674235e-19 0.00000000e+00)	(-4.36052630e-02 1.37674235e-19 0.00000000e+00)
14              	top_wall	(-4.37324881e-02 3.04556050e-22 0.00000000e+00)	(-4.37324881e-02 3.04556050e-22 0.00000000e+00)
14              	bot_wall	(-4.37325118e-02 9.13994486e-19 0.00000000e+00)	(-4.37325118e-02 9.13994486e-19 0.00000000e+00)
14.5            	top_wall	(-4.38647126e-02 3.59118981e-22 0.00000000e+00)	(-4.38647126e-02 3.59118981e-22 0.00000000e+00)
14.5            	bot_wall	(-4.38647358e-02 5.22910790e-19 0.00000000e+00)	(-4.38647358e-02 5.22910790e-19 0.00000000e+00)
15              	top_wall	(-4.40008138e-02 4.18176634e-22 0.00000000e+00)	(-4.40008138e-02 4.18176634e-22 0.00000000e+00)
15              	bot_wall	(-4.40008363e-02 1.15458700e-18 0.00000000e+00)	(-4.40008363e-02 1.15458700e-18 0.00000000e+00)
15.5            	top_wall	(-4.41398377e-02 4.81522823e-22 0.00000000e+00)	(-4.41398377e-02 4.81522823e-22 0.00000000e+00)
15.5            	bot_wall	(-4.41398594e-02 4.87791037e-19 0.00000000e+00)	(-4.41398594e-02 4.87791037e-19 0.00000000e+00)
16              	top_wall	(-4.42809799e-02 5.48947539e-22 0.00000000e+00)	(-4.42809799e-02 5.48947539e-22 0.00000000e+00)
16              	bot_wall	(-4.42810007e-02 5.46323104e-19 0.00000000e+00)	(-4.42810007e-02 5.46323104e-19 0.00000000e+00)
16.5            	top_wall	(-4.44235614e-02 6.20261416e-22 0.00000000e+00)	(-4.44235614e-02 6.20261416e-22 0.00000000e+00)
16.5            	bot_wall	(-4.44235812e-02 2.04481412e-19 0.00000000e+00)	(-4.44235812e-02 2.04481412e-19 0.00000000e+00)
17              	top_wall	(-4.45669996e-02 6.95317595e-22 0.00000000e+00)	(-4.45669996e-02 6.95317595e-22 0.00000000e+00)
17              	bot_wall	(-4.45670184e-02 9.37978721e-19 0.00000000e+00)	(-4.45670184e-02 9.37978721e-19 0.00000000e+00)
17.5            	top_wall	(-4.47107531e-02 7.74022097e-22 0.00000000e+00)	(-4.47107531e-02 7.74022097e-22 0.00000000e+00)
17.5            	bot_wall	(-4.47107709e-02 1.01742101e-18 0.00000000e+00)	(-4.47107709e-02 1.01742101e-18 0.00000000e+00)
18              	top_wall	(-4.48543115e-02 8.56327674e-22 0.00000000e+00)	(-4.48543115e-02 8.56327674e-22 0.00000000e+00)
18              	bot_wall	(-4.48543282e-02 1.61054263e-18 0.00000000e+00)	(-4.48543282e-02 1.61054263e-18 0.00000000e+00)
18.5            	top_wall	(-4.49971774e-02 9.42253760e-22 0.00000000e+00)	(-4.49971774e-02 9.42253760e-22 0.00000000e+00)
18.5            	bot_wall	(-4.49971931e-02 2.12772456e-18 0.00000000e+00)	(-4.49971931e-02 2.12772456e-18 0.00000000e+00)
19              	top_wall	(-4.51388468e-02 1.03187864e-21 0.00000000e+00)	(-4.51388468e-02 1.03187864e-21 0.00000000e+00)
19              	bot_wall	(-4.51388616e-02 3.05946860e-18 0.00000000e+00)	(-4.51388616e-02 3.05946860e-18 0.00000000e+00)
19.5            	top_wall	(-4.52788250e-02 1.12531210e-21 0.00000000e+00)	(-4.52788250e-02 1.12531210e-21 0.00000000e+00)
19.5            	bot_wall	(-4.52788387e-02 2.40219176e-18 0.00000000e+00)	(-4.52788387e-02 2.40219176e-18 0.00000000e+00)
20              	top_wall	(-4.54166312e-02 1.22269268e-21 0.00000000e+00)	(-4.54166312e-02 1.22269268e-21 0.00000000e+00)
20              	bot_wall	(-4.54166439e-02 1.71196457e-18 0.00000000e+00)	(-4.54166439e-02 1.71196457e-18 0.00000000e+00)
20.5            	top_wall	(-4.55518071e-02 1.32418896e-21 0.00000000e+00)	(-4.55518071e-02 1.32418896e-21 0.00000000e+00)
20.5            	bot_wall	(-4.55518190e-02 1.82526857e-18 0.00000000e+00)	(-4.55518190e-02 1.82526857e-18 0.00000000e+00)
21              	top_wall	(-4.56839231e-02 1.42998428e-21 0.00000000e+00)	(-4.56839231e-02 1.42998428e-21 0.00000000e+00)
21              	bot_wall	(-4.56839341e-02 1.22155354e-18 0.00000000e+00)	(-4.56839341e-02 1.22155354e-18 0.00000000e+00)
21.5            	top_wall	(-4.58125904e-02 1.54026081e-21 0.00000000e+00)	(-4.58125904e-02 1.54026081e-21 0.00000000e+00)
21.5            	bot_wall	(-4.58126006e-02 2.07683294e-19 0.00000000e+00)	(-4.58126006e-02 2.07683294e-19 0.00000000e+00)
22              	top_wall	(-4.59374650e-02 1.65518544e-21 0.00000000e+00)	(-4.59374650e-02 1.65518544e-21 0.00000000e+00)
22              	bot_wall	(-4.59374745e-02 6.72288009e-19 0.00000000e+00)	(-4.59374745e-02 6.72288009e-19 0.00000000e+00)
22.5            	top_wall	(-4.60582528e-02 1.77490718e-21 0.00000000e+00)	(-4.60582528e-02 1.77490718e-21 0.00000000e+00)
22.5            	bot_wall	(-4.60582615e-02 1.98743881e-18 0.00000000e+00)	(-4.60582615e-02 1.98743881e-18 0.00000000e+00)
