/*--------------------------------*- C++ -*----------------------------------*\
| =========                 |                                                 |
| \\      /  F ield         | OpenFOAM: The Open Source CFD Toolbox           |
|  \\    /   O peration     | Version:  2406                                  |
|   \\  /    A nd           | Website:  www.openfoam.com                      |
|    \\/     M anipulation  |                                                 |
\*---------------------------------------------------------------------------*/
FoamFile
{
    version     2.0;
    format      ascii;
    arch        "LSB;label=32;scalar=64";
    class       volScalarField;
    location    "100";
    object      p;
}
// * * * * * * * * * * * * * * * * * * * * * * * * * * * * * * * * * * * * * //

dimensions      [0 2 -2 0 0 0 0];

internalField   nonuniform List<scalar> 
1000
(
1.03961e-18
9.19847e-18
1.12004e-17
1.12462e-17
1.0885e-17
1.04832e-17
1.0081e-17
9.74727e-18
9.51687e-18
8.9748e-18
8.53603e-18
8.35108e-18
8.09647e-18
7.91109e-18
7.58631e-18
7.56309e-18
7.44683e-18
7.26061e-18
7.07418e-18
6.88755e-18
6.7007e-18
6.51365e-18
6.32639e-18
6.13893e-18
5.95126e-18
5.76338e-18
5.5753e-18
5.38701e-18
5.19852e-18
5.00982e-18
4.82092e-18
4.63182e-18
4.44252e-18
4.25301e-18
4.0633e-18
3.87339e-18
3.68327e-18
3.49296e-18
3.30245e-18
3.11174e-18
2.92082e-18
2.72971e-18
2.5384e-18
2.3469e-18
2.15519e-18
1.96329e-18
1.77119e-18
1.5789e-18
1.38641e-18
1.19372e-18
1.00084e-18
8.07763e-19
6.14493e-19
4.2103e-19
2.27373e-19
3.35235e-20
-1.60518e-19
-3.54752e-19
-5.49177e-19
-7.43794e-19
-9.38601e-19
-1.1336e-18
-1.32878e-18
-1.52416e-18
-1.71973e-18
-1.91548e-18
-2.11142e-18
-2.30755e-18
-2.50387e-18
-2.70037e-18
-2.89706e-18
-3.09394e-18
-3.291e-18
-3.48824e-18
-3.68567e-18
-3.88329e-18
-4.08109e-18
-4.27907e-18
-4.47723e-18
-4.67558e-18
-4.87411e-18
-5.07282e-18
-5.27171e-18
-5.47078e-18
-5.67004e-18
-5.86947e-18
-6.06908e-18
-6.26887e-18
-6.46884e-18
-6.66899e-18
-6.86931e-18
-7.06981e-18
-7.27049e-18
-7.47135e-18
-7.67238e-18
-7.87359e-18
-8.07497e-18
-8.27652e-18
-8.47825e-18
-8.68016e-18
-8.88224e-18
-9.08449e-18
-9.28691e-18
-9.4895e-18
-9.69227e-18
-9.89521e-18
-1.00983e-17
-1.03016e-17
-1.0505e-17
-1.07087e-17
-1.09125e-17
-1.11164e-17
-1.13205e-17
-1.15248e-17
-1.17293e-17
-1.19339e-17
-1.21387e-17
-1.23437e-17
-1.25488e-17
-1.27541e-17
-1.29595e-17
-1.31651e-17
-1.33709e-17
-1.35769e-17
-1.3783e-17
-1.39892e-17
-1.41957e-17
-1.44023e-17
-1.4609e-17
-1.48159e-17
-1.5023e-17
-1.52303e-17
-1.54376e-17
-1.56452e-17
-1.58529e-17
-1.60608e-17
-1.62688e-17
-1.6477e-17
-1.66853e-17
-1.64768e-17
-1.58509e-17
-1.68949e-17
-1.75218e-17
-1.7731e-17
-1.79402e-17
-1.81497e-17
-1.83592e-17
-1.8569e-17
-1.87789e-17
-1.89889e-17
-1.91991e-17
-1.94094e-17
-1.96199e-17
-1.98306e-17
-2.00414e-17
-2.02523e-17
-2.04634e-17
-2.06747e-17
-2.0886e-17
-2.10976e-17
-2.13093e-17
-2.15211e-17
-2.17331e-17
-2.19452e-17
-2.21575e-17
-2.23699e-17
-2.25825e-17
-2.27952e-17
-2.3008e-17
-2.3221e-17
-2.42867e-17
-2.66327e-17
-2.47119e-17
-2.40713e-17
-2.4285e-17
-2.44988e-17
-2.47128e-17
-2.49269e-17
-2.51412e-17
-2.53556e-17
-2.55701e-17
-2.57848e-17
-2.59996e-17
-2.62146e-17
-2.64297e-17
-2.66449e-17
-2.68603e-17
-2.70758e-17
-2.72914e-17
-2.75072e-17
-2.77231e-17
-2.79391e-17
-2.81553e-17
-2.83716e-17
-2.8588e-17
-2.88046e-17
-2.90213e-17
-2.92381e-17
-2.94551e-17
-2.96722e-17
-2.98894e-17
-3.01068e-17
-3.07592e-17
-3.25001e-17
-3.11937e-17
-3.09758e-17
-3.11938e-17
-3.11938e-17
-3.11938e-17
-3.11938e-17
-3.11938e-17
-3.11938e-17
-3.11938e-17
-3.11938e-17
-3.11938e-17
-3.11938e-17
-3.11938e-17
-3.11938e-17
-3.11938e-17
-3.11938e-17
-3.11938e-17
-3.11938e-17
-3.11938e-17
-3.11938e-17
-3.11938e-17
-3.11938e-17
-3.11938e-17
-3.11938e-17
-3.11938e-17
-3.11938e-17
-3.11938e-17
-3.11938e-17
-3.11938e-17
-3.11938e-17
-3.11938e-17
-3.11938e-17
-3.11938e-17
-3.11938e-17
-3.11938e-17
-3.11938e-17
-3.11938e-17
-3.11938e-17
-3.11938e-17
-3.11938e-17
-3.11938e-17
-3.11938e-17
-3.11938e-17
-3.11938e-17
-3.11938e-17
-3.11938e-17
-3.11938e-17
-3.11938e-17
-3.11938e-17
-3.11938e-17
-3.11938e-17
-3.11938e-17
-3.11938e-17
-3.11938e-17
-3.11938e-17
-3.11938e-17
-3.11938e-17
-3.11938e-17
-3.11938e-17
-3.11938e-17
-3.11938e-17
-3.11938e-17
-3.11938e-17
-3.11938e-17
-3.11938e-17
-3.11938e-17
-3.11938e-17
-3.11938e-17
-3.11938e-17
-3.11938e-17
-3.11938e-17
-3.11938e-17
-3.11938e-17
-3.11938e-17
-3.11938e-17
-3.11938e-17
-3.11938e-17
-3.11938e-17
-3.11938e-17
-3.11938e-17
-3.11938e-17
-3.11938e-17
-3.11938e-17
-3.11938e-17
-3.11938e-17
-3.11938e-17
-3.11938e-17
-3.11938e-17
-3.11938e-17
-3.11938e-17
-3.11938e-17
-3.11938e-17
-3.11938e-17
-3.11938e-17
-3.11938e-17
-3.11938e-17
-3.11938e-17
-3.11938e-17
-3.11938e-17
-3.11938e-17
-3.11938e-17
-3.11938e-17
-3.11938e-17
-3.11938e-17
-3.11938e-17
-3.11938e-17
-3.11938e-17
-3.11938e-17
-3.11938e-17
-3.11938e-17
-3.11938e-17
-3.11938e-17
-3.11938e-17
-3.11938e-17
-3.11938e-17
-3.11938e-17
-3.11938e-17
-3.11938e-17
-3.11938e-17
-3.11938e-17
-3.11938e-17
-3.11938e-17
-3.11938e-17
-3.11938e-17
-3.11938e-17
-3.11938e-17
-3.11938e-17
-3.11938e-17
-3.11938e-17
-3.11938e-17
-3.11938e-17
-3.11938e-17
-3.11938e-17
-3.11938e-17
-3.11938e-17
-3.11938e-17
-3.11938e-17
-3.11938e-17
-3.11938e-17
-3.11938e-17
-3.11938e-17
-3.11938e-17
-3.11938e-17
-3.11938e-17
-3.11938e-17
-3.11938e-17
-3.11938e-17
-3.11938e-17
-3.11938e-17
-3.11938e-17
-3.11938e-17
-3.11938e-17
-3.11938e-17
-3.11938e-17
-3.11938e-17
-3.11938e-17
-3.11938e-17
-3.11938e-17
-3.11938e-17
-3.11938e-17
-3.11938e-17
-3.11938e-17
-3.11938e-17
-3.11938e-17
-3.11938e-17
-3.11938e-17
-3.11938e-17
-3.11938e-17
-3.11938e-17
-3.11938e-17
-3.11938e-17
-3.11938e-17
-3.11938e-17
-3.11938e-17
-3.11938e-17
-3.11938e-17
-3.11938e-17
-3.11938e-17
-3.11938e-17
-3.11938e-17
-3.11938e-17
-3.11938e-17
-3.11938e-17
-3.11938e-17
-3.11938e-17
-3.11938e-17
-3.11938e-17
-3.11938e-17
-3.11938e-17
-3.11938e-17
-3.11938e-17
-3.11938e-17
-3.11938e-17
-3.11938e-17
-3.11938e-17
-3.11938e-17
-3.11938e-17
-3.11938e-17
-3.11938e-17
-3.11938e-17
-3.11938e-17
-3.11938e-17
-3.11938e-17
-3.11938e-17
-3.11938e-17
-3.11938e-17
-3.11938e-17
-3.11938e-17
-3.11938e-17
-3.11938e-17
-3.11938e-17
-3.11938e-17
-3.11938e-17
-3.11938e-17
-3.11938e-17
-3.11938e-17
-3.11938e-17
-3.11938e-17
-3.11938e-17
-3.11938e-17
-3.11938e-17
-3.11938e-17
-3.11938e-17
-3.11938e-17
-3.11938e-17
-3.11938e-17
-3.11938e-17
-3.11938e-17
-3.11938e-17
-3.11938e-17
-3.11938e-17
-3.11938e-17
-3.11938e-17
-3.11938e-17
-3.11938e-17
-3.11938e-17
-3.11938e-17
-3.11938e-17
-3.11938e-17
-3.11938e-17
-3.11938e-17
-3.11938e-17
-3.11938e-17
-3.11938e-17
-3.11938e-17
-3.11938e-17
-3.11938e-17
-3.11938e-17
-3.11938e-17
-3.11938e-17
-3.11938e-17
-3.11938e-17
-3.11938e-17
-3.11938e-17
-3.11938e-17
-3.11938e-17
-3.11938e-17
-3.11938e-17
-3.11938e-17
-3.11938e-17
-3.11938e-17
-3.11938e-17
-3.11938e-17
-3.11938e-17
-3.11938e-17
-3.11938e-17
-3.11938e-17
-3.11938e-17
-3.11938e-17
-3.11938e-17
-3.11938e-17
-3.11938e-17
-3.11938e-17
-3.11938e-17
-3.11938e-17
-3.11938e-17
-3.11938e-17
-3.11938e-17
-3.11938e-17
-3.11938e-17
-3.11938e-17
-3.11938e-17
-3.11938e-17
-3.11938e-17
-3.11938e-17
-3.11938e-17
-3.11938e-17
-3.11938e-17
-3.11938e-17
-3.11938e-17
-3.11938e-17
-3.11938e-17
-3.11938e-17
-3.11938e-17
-3.11938e-17
-3.11938e-17
-3.11938e-17
-3.11938e-17
-3.11938e-17
-3.11938e-17
-3.11938e-17
-3.11938e-17
-3.11938e-17
-3.11938e-17
-3.11938e-17
-3.11938e-17
-3.11938e-17
-3.11938e-17
-3.11938e-17
-3.11938e-17
-3.11938e-17
-3.11938e-17
-3.11938e-17
-3.11938e-17
-3.11938e-17
-3.11938e-17
-3.11938e-17
-3.11938e-17
-3.11938e-17
-3.11938e-17
-3.11938e-17
-3.11938e-17
-3.11938e-17
-3.11938e-17
-3.11938e-17
-3.11938e-17
-3.11938e-17
-3.11938e-17
-3.11938e-17
-3.11938e-17
-3.11938e-17
-3.11938e-17
-3.11938e-17
-3.11938e-17
-3.11938e-17
-3.11938e-17
-3.11938e-17
-3.11938e-17
-3.11938e-17
-3.11938e-17
-3.11938e-17
-3.11938e-17
-3.11938e-17
-3.11938e-17
-3.11938e-17
-3.11938e-17
-3.11938e-17
-3.11938e-17
-3.11938e-17
-3.11938e-17
-3.11938e-17
-3.11938e-17
-3.11938e-17
-3.11938e-17
-3.11938e-17
-3.11938e-17
-3.11938e-17
-3.11938e-17
-3.11938e-17
-3.11938e-17
-3.11938e-17
-3.11938e-17
-3.11938e-17
-3.11938e-17
-3.11938e-17
-3.11938e-17
-3.11938e-17
-3.11938e-17
-3.11938e-17
-3.11938e-17
-3.11938e-17
-3.11938e-17
-3.11938e-17
-3.11938e-17
-3.11938e-17
-3.11938e-17
-3.11938e-17
-3.11938e-17
-3.11938e-17
-3.11938e-17
-3.11938e-17
-3.11938e-17
-3.11938e-17
-3.11938e-17
-3.11938e-17
-3.11938e-17
-3.11938e-17
-3.11938e-17
-3.11938e-17
-3.11938e-17
-3.11938e-17
-3.11938e-17
-3.11938e-17
-3.11938e-17
-3.11938e-17
-3.11938e-17
-3.11938e-17
-3.11938e-17
-3.11938e-17
-3.11938e-17
-3.11938e-17
-3.11938e-17
-3.11938e-17
-3.11938e-17
-3.11938e-17
-3.11938e-17
-3.11938e-17
-3.11938e-17
-3.11938e-17
-3.11938e-17
-3.11938e-17
-3.11938e-17
-3.11938e-17
-3.11938e-17
-3.11938e-17
-3.11938e-17
-3.11938e-17
-3.11938e-17
-3.11938e-17
-3.11938e-17
-3.11938e-17
-3.11938e-17
-3.11938e-17
-3.11938e-17
-3.11938e-17
-3.11938e-17
-3.11938e-17
-3.11938e-17
-3.11938e-17
-3.11938e-17
-3.11938e-17
-3.11938e-17
-3.11938e-17
-3.11938e-17
-3.11938e-17
-3.11938e-17
-3.11938e-17
-3.11938e-17
-3.11938e-17
-3.11938e-17
-3.11938e-17
-3.11938e-17
-3.11938e-17
-3.11938e-17
-3.11938e-17
-3.11938e-17
-3.11938e-17
-3.11938e-17
-3.11938e-17
-3.11938e-17
-3.11938e-17
-3.11938e-17
-3.11938e-17
-3.11938e-17
-3.11938e-17
-3.11938e-17
-3.11938e-17
-3.11938e-17
-3.11938e-17
-3.11938e-17
-3.11938e-17
-3.11938e-17
-3.11938e-17
-3.11938e-17
-3.11938e-17
-3.11938e-17
-3.11938e-17
-3.11938e-17
-3.11938e-17
-3.11938e-17
-3.11938e-17
-3.11938e-17
-3.11938e-17
-3.11938e-17
-3.11938e-17
-3.11938e-17
-3.11938e-17
-3.11938e-17
-3.11938e-17
-3.11938e-17
-3.11938e-17
-3.11938e-17
-3.11938e-17
-3.11938e-17
-3.11938e-17
-3.11938e-17
-3.11938e-17
-3.11938e-17
-3.11938e-17
-3.11938e-17
-3.11938e-17
-3.11938e-17
-3.11938e-17
-3.11938e-17
-3.11938e-17
-3.11938e-17
-3.11938e-17
-3.11938e-17
-3.11938e-17
-3.11938e-17
-3.11938e-17
-3.11938e-17
-3.11938e-17
-3.11938e-17
-3.11938e-17
-3.11938e-17
-3.11938e-17
-3.11938e-17
-3.11938e-17
-3.11938e-17
-3.11938e-17
-3.11938e-17
-3.11938e-17
-3.11938e-17
-3.11938e-17
-3.11938e-17
-3.11938e-17
-3.11938e-17
-3.11938e-17
-3.11938e-17
-3.11938e-17
-3.11938e-17
-3.11938e-17
-3.11938e-17
-3.11938e-17
-3.11938e-17
-3.11938e-17
-3.11938e-17
-3.11938e-17
-3.11938e-17
-3.11938e-17
-3.11938e-17
-3.11938e-17
-3.11938e-17
-3.11938e-17
-3.11938e-17
-3.11938e-17
-3.11938e-17
-3.11938e-17
-3.11938e-17
-3.11938e-17
-3.11938e-17
-3.11938e-17
-3.11938e-17
-3.11938e-17
-3.11938e-17
-3.11938e-17
-3.11938e-17
-3.11938e-17
-3.11938e-17
-3.11938e-17
-3.11938e-17
-3.11938e-17
-3.11938e-17
-3.11938e-17
-3.11938e-17
-3.11938e-17
-3.11938e-17
-3.11938e-17
-3.11938e-17
-3.11938e-17
-3.11938e-17
-3.11938e-17
-3.11938e-17
-3.11938e-17
-3.11938e-17
-3.11938e-17
-3.11938e-17
-3.11938e-17
-3.11938e-17
-3.11938e-17
-3.11938e-17
-3.11938e-17
-3.11938e-17
-3.11938e-17
-3.11938e-17
-3.11938e-17
-3.11938e-17
-3.11938e-17
-3.11938e-17
-3.11938e-17
-3.11938e-17
-3.11938e-17
-3.11938e-17
-3.11938e-17
-3.11938e-17
-3.11938e-17
-3.11938e-17
-3.11938e-17
-3.11938e-17
-3.11938e-17
-3.11938e-17
-3.11938e-17
-3.11938e-17
-3.11938e-17
-3.11938e-17
-3.11938e-17
-3.11938e-17
-3.11938e-17
-3.11938e-17
-3.11938e-17
-3.11938e-17
-3.11938e-17
-3.11938e-17
-3.11938e-17
-3.11938e-17
-3.11938e-17
-3.11938e-17
-3.11938e-17
-3.11938e-17
-3.11938e-17
-3.11938e-17
-3.11938e-17
-3.11938e-17
-3.11938e-17
-3.11938e-17
-3.11938e-17
-3.11938e-17
-3.11938e-17
-3.11938e-17
-3.11938e-17
-3.11938e-17
-3.11938e-17
-3.11938e-17
-3.11938e-17
-3.11938e-17
-3.11938e-17
-3.11938e-17
-3.11938e-17
-3.11938e-17
-3.11938e-17
-3.11938e-17
-3.11938e-17
-3.11938e-17
-3.11938e-17
-3.11938e-17
-3.11938e-17
-3.11938e-17
-3.11938e-17
-3.11938e-17
-3.11938e-17
-3.11938e-17
-3.11938e-17
-3.11938e-17
-3.11938e-17
-3.11938e-17
-3.11938e-17
-3.11938e-17
-3.11938e-17
-3.11938e-17
-3.11938e-17
-3.11938e-17
-3.11938e-17
-3.11938e-17
-3.11938e-17
-3.11938e-17
-3.11938e-17
-3.11938e-17
-3.11938e-17
-3.11938e-17
-3.11938e-17
-3.11938e-17
-3.11938e-17
-3.11938e-17
-3.11938e-17
-3.11938e-17
-3.11938e-17
-3.11938e-17
-3.11938e-17
-3.11938e-17
-3.11938e-17
-3.11938e-17
-3.11938e-17
-3.11938e-17
-3.11938e-17
-3.11938e-17
-3.11938e-17
-3.11938e-17
-3.11938e-17
-3.11938e-17
-3.11938e-17
-3.11938e-17
-3.11938e-17
-3.11938e-17
-3.11938e-17
-3.11938e-17
-3.11938e-17
-3.11938e-17
-3.11938e-17
-3.11938e-17
-3.11938e-17
-3.11938e-17
-3.11938e-17
-3.11938e-17
-3.11938e-17
-3.11938e-17
-3.11938e-17
-3.11938e-17
-3.11938e-17
-3.11938e-17
-3.11938e-17
-3.11938e-17
-3.11938e-17
-3.11938e-17
-3.11938e-17
-3.11938e-17
-3.11938e-17
-3.11938e-17
-3.11938e-17
-3.11938e-17
-3.11938e-17
-3.11938e-17
-3.11938e-17
-3.11938e-17
-3.11938e-17
-3.11938e-17
-3.11938e-17
-3.11938e-17
-3.11938e-17
-3.11938e-17
-3.11938e-17
-3.11938e-17
-3.11938e-17
-3.11938e-17
-3.11938e-17
-3.11938e-17
-3.11938e-17
-3.11938e-17
-3.11938e-17
-3.11938e-17
-3.11938e-17
-3.11938e-17
-3.11938e-17
-3.11938e-17
-3.11938e-17
-3.11938e-17
-3.11938e-17
-3.11938e-17
-3.11938e-17
-3.11938e-17
-3.11938e-17
-3.11938e-17
-3.11938e-17
-3.11938e-17
-3.11938e-17
-3.11938e-17
-3.11938e-17
-3.11938e-17
-3.11938e-17
-3.11938e-17
-3.11938e-17
-3.11938e-17
-3.11938e-17
-3.11938e-17
-3.11938e-17
-3.11938e-17
-3.11938e-17
-3.11938e-17
-3.11938e-17
-3.11938e-17
-3.11938e-17
-3.11938e-17
-3.11938e-17
-3.11938e-17
-3.11938e-17
-3.11938e-17
-3.11938e-17
-3.11938e-17
-3.11938e-17
-3.11938e-17
-3.11938e-17
-3.11938e-17
-3.11938e-17
-3.11938e-17
-3.11938e-17
-3.11938e-17
-3.11938e-17
-3.11938e-17
-3.11938e-17
-3.11938e-17
-3.11938e-17
-3.11938e-17
-3.11938e-17
-3.11938e-17
-3.11938e-17
-3.11938e-17
-3.11938e-17
-3.11938e-17
-3.11938e-17
-3.11938e-17
-3.11938e-17
-3.11938e-17
-3.11938e-17
-3.11938e-17
-3.11938e-17
-3.11938e-17
)
;

boundaryField
{
    top_wall
    {
        type            zeroGradient;
    }
    inlet
    {
        type            cyclic;
    }
    bot_wall
    {
        type            zeroGradient;
    }
    outlet
    {
        type            cyclic;
    }
    frontAndBack
    {
        type            empty;
    }
}


// ************************************************************************* //
