/*--------------------------------*- C++ -*----------------------------------*\
| =========                 |                                                 |
| \\      /  F ield         | OpenFOAM: The Open Source CFD Toolbox           |
|  \\    /   O peration     | Version:  2406                                  |
|   \\  /    A nd           | Website:  www.openfoam.com                      |
|    \\/     M anipulation  |                                                 |
\*---------------------------------------------------------------------------*/
FoamFile
{
    version     2.0;
    format      ascii;
    arch        "LSB;label=32;scalar=64";
    class       surfaceScalarField;
    location    "100";
    object      phi;
}
// * * * * * * * * * * * * * * * * * * * * * * * * * * * * * * * * * * * * * //

dimensions      [0 3 -1 0 0 0 0];

oriented        oriented;

internalField   nonuniform List<scalar> 
999
(
-2.5859e-18
-2.58454e-18
-2.58785e-18
-2.59948e-18
-2.60613e-18
-2.59618e-18
-2.57551e-18
-2.55128e-18
-2.46948e-18
-2.47816e-18
-2.56253e-18
-2.53432e-18
-2.58021e-18
-2.5725e-18
-2.65303e-18
-2.65203e-18
-2.65284e-18
-2.65061e-18
-2.64462e-18
-2.63982e-18
-2.63671e-18
-2.63556e-18
-2.63648e-18
-2.63946e-18
-2.64442e-18
-2.65126e-18
-2.65982e-18
-2.66998e-18
-2.68159e-18
-2.6945e-18
-2.70859e-18
-2.72374e-18
-2.73984e-18
-2.75679e-18
-2.77452e-18
-2.79296e-18
-2.81205e-18
-2.83173e-18
-2.85197e-18
-2.87275e-18
-2.89402e-18
-2.91578e-18
-2.93802e-18
-2.96073e-18
-2.9839e-18
-3.00755e-18
-3.03167e-18
-3.05627e-18
-3.08136e-18
-3.10694e-18
-3.13304e-18
-3.15967e-18
-3.18683e-18
-3.21455e-18
-3.24284e-18
-3.27171e-18
-3.30117e-18
-3.33126e-18
-3.36197e-18
-3.39332e-18
-3.42533e-18
-3.45802e-18
-3.4914e-18
-3.52547e-18
-3.56027e-18
-3.5958e-18
-3.63208e-18
-3.66912e-18
-3.70693e-18
-3.74554e-18
-3.78494e-18
-3.82517e-18
-3.86623e-18
-3.90813e-18
-3.95089e-18
-3.99453e-18
-4.03906e-18
-4.08449e-18
-4.13084e-18
-4.17813e-18
-4.22637e-18
-4.27557e-18
-4.32576e-18
-4.37694e-18
-4.42914e-18
-4.48237e-18
-4.53665e-18
-4.59199e-18
-4.6484e-18
-4.7059e-18
-4.7645e-18
-4.8242e-18
-4.88502e-18
-4.94695e-18
-5.00999e-18
-5.07413e-18
-5.13935e-18
-5.20563e-18
-5.27293e-18
-5.34122e-18
-5.41042e-18
-5.48046e-18
-5.55126e-18
-5.6227e-18
-5.69465e-18
-5.76697e-18
-5.83949e-18
-5.91199e-18
-5.98427e-18
-6.05608e-18
-6.12714e-18
-6.19717e-18
-6.26584e-18
-6.33285e-18
-6.39783e-18
-6.46046e-18
-6.52038e-18
-6.57727e-18
-6.6308e-18
-6.6807e-18
-6.72673e-18
-6.7687e-18
-6.8065e-18
-6.84011e-18
-6.86961e-18
-6.89522e-18
-6.91733e-18
-6.93656e-18
-6.95379e-18
-6.97012e-18
-6.98687e-18
-7.00596e-18
-7.03003e-18
-7.06263e-18
-7.10856e-18
-7.17426e-18
-7.26629e-18
-7.37639e-18
-7.53213e-18
-7.61502e-18
-6.41031e-18
-6.4911e-18
-6.6449e-18
-6.75278e-18
-6.84401e-18
-6.91013e-18
-6.9575e-18
-6.99244e-18
-7.01965e-18
-7.04265e-18
-7.06401e-18
-7.08565e-18
-7.10891e-18
-7.1347e-18
-7.16351e-18
-7.19569e-18
-7.23167e-18
-7.27182e-18
-7.3163e-18
-7.36513e-18
-7.41817e-18
-7.47522e-18
-7.53598e-18
-7.60011e-18
-7.66721e-18
-7.73689e-18
-7.80873e-18
-7.88237e-18
-7.99446e-18
-8.11319e-18
-8.21853e-18
-9.38423e-18
-9.49241e-18
-9.61232e-18
-9.72451e-18
-9.79731e-18
-9.86724e-18
-9.93374e-18
-9.99618e-18
-1.00538e-17
-1.01058e-17
-1.01511e-17
-1.01906e-17
-1.02255e-17
-1.02548e-17
-1.02779e-17
-1.02943e-17
-1.03034e-17
-1.03048e-17
-1.02986e-17
-1.0285e-17
-1.02648e-17
-1.02397e-17
-1.02119e-17
-1.01849e-17
-1.01611e-17
-1.01441e-17
-1.01411e-17
-1.01613e-17
-1.02169e-17
-1.03421e-17
-1.05372e-17
-1.07512e-17
-1.10223e-17
-1.12976e-17
-1.1601e-17
-1.19034e-17
-1.20966e-17
-1.22401e-17
-1.23384e-17
-1.24019e-17
-1.24373e-17
-1.24499e-17
-1.2446e-17
-1.24289e-17
-1.24009e-17
-1.23653e-17
-1.23248e-17
-1.22814e-17
-1.22367e-17
-1.21917e-17
-1.21468e-17
-1.21022e-17
-1.20579e-17
-1.20138e-17
-1.19698e-17
-1.19256e-17
-1.18812e-17
-1.18364e-17
-1.17911e-17
-1.17454e-17
-1.16991e-17
-1.16524e-17
-1.16052e-17
-1.15577e-17
-1.15099e-17
-1.14619e-17
-1.14138e-17
-1.13656e-17
-1.13174e-17
-1.12693e-17
-1.12214e-17
-1.11737e-17
-1.11262e-17
-1.10791e-17
-1.10322e-17
-1.09857e-17
-1.09396e-17
-1.08938e-17
-1.08484e-17
-1.08034e-17
-1.07588e-17
-1.07145e-17
-1.06706e-17
-1.0627e-17
-1.05838e-17
-1.05409e-17
-1.04984e-17
-1.04561e-17
-1.04142e-17
-1.03726e-17
-1.03312e-17
-1.02901e-17
-1.02493e-17
-1.02087e-17
-1.01683e-17
-1.01282e-17
-1.00884e-17
-1.00487e-17
-1.00093e-17
-9.97011e-18
-9.93112e-18
-9.89234e-18
-9.85375e-18
-9.81537e-18
-9.77718e-18
-9.73919e-18
-9.70139e-18
-9.66378e-18
-9.62635e-18
-9.58911e-18
-9.55205e-18
-9.51517e-18
-9.47847e-18
-9.44194e-18
-9.40559e-18
-9.36942e-18
-9.33341e-18
-9.29757e-18
-9.2619e-18
-9.2264e-18
-9.19106e-18
-9.15588e-18
-9.12086e-18
-9.086e-18
-9.05129e-18
-9.01674e-18
-8.98234e-18
-8.94809e-18
-8.91399e-18
-8.88004e-18
-8.84623e-18
-8.81256e-18
-8.77903e-18
-8.74564e-18
-8.71239e-18
-8.67927e-18
-8.64629e-18
-8.61344e-18
-8.58072e-18
-8.54813e-18
-8.51566e-18
-8.48332e-18
-8.45111e-18
-8.41902e-18
-8.38705e-18
-8.3552e-18
-8.32347e-18
-8.29185e-18
-8.26036e-18
-8.22898e-18
-8.19771e-18
-8.16656e-18
-8.13553e-18
-8.1046e-18
-8.07379e-18
-8.04309e-18
-8.0125e-18
-7.98202e-18
-7.95165e-18
-7.92139e-18
-7.89124e-18
-7.8612e-18
-7.83127e-18
-7.80144e-18
-7.77172e-18
-7.74211e-18
-7.71261e-18
-7.68322e-18
-7.65393e-18
-7.62475e-18
-7.59568e-18
-7.56671e-18
-7.53785e-18
-7.5091e-18
-7.48046e-18
-7.45192e-18
-7.42349e-18
-7.39517e-18
-7.36695e-18
-7.33885e-18
-7.31085e-18
-7.28295e-18
-7.25517e-18
-7.22749e-18
-7.19992e-18
-7.17246e-18
-7.14511e-18
-7.11786e-18
-7.09073e-18
-7.0637e-18
-7.03678e-18
-7.00996e-18
-6.98326e-18
-6.95666e-18
-6.93017e-18
-6.90379e-18
-6.87752e-18
-6.85135e-18
-6.8253e-18
-6.79935e-18
-6.77351e-18
-6.74777e-18
-6.72215e-18
-6.69663e-18
-6.67122e-18
-6.64591e-18
-6.62071e-18
-6.59562e-18
-6.57064e-18
-6.54576e-18
-6.52099e-18
-6.49632e-18
-6.47176e-18
-6.44731e-18
-6.42296e-18
-6.39871e-18
-6.37457e-18
-6.35053e-18
-6.3266e-18
-6.30277e-18
-6.27904e-18
-6.25541e-18
-6.23189e-18
-6.20846e-18
-6.18514e-18
-6.16192e-18
-6.1388e-18
-6.11578e-18
-6.09286e-18
-6.07003e-18
-6.04731e-18
-6.02468e-18
-6.00215e-18
-5.97971e-18
-5.95738e-18
-5.93513e-18
-5.91299e-18
-5.89093e-18
-5.86897e-18
-5.84711e-18
-5.82533e-18
-5.80365e-18
-5.78206e-18
-5.76056e-18
-5.73915e-18
-5.71783e-18
-5.6966e-18
-5.67545e-18
-5.6544e-18
-5.63343e-18
-5.61255e-18
-5.59175e-18
-5.57104e-18
-5.55041e-18
-5.52987e-18
-5.50941e-18
-5.48903e-18
-5.46874e-18
-5.44852e-18
-5.42839e-18
-5.40834e-18
-5.38836e-18
-5.36847e-18
-5.34865e-18
-5.32891e-18
-5.30925e-18
-5.28966e-18
-5.27015e-18
-5.25071e-18
-5.23135e-18
-5.21206e-18
-5.19284e-18
-5.1737e-18
-5.15462e-18
-5.13562e-18
-5.11669e-18
-5.09783e-18
-5.07904e-18
-5.06032e-18
-5.04166e-18
-5.02307e-18
-5.00455e-18
-4.9861e-18
-4.96771e-18
-4.94939e-18
-4.93113e-18
-4.91293e-18
-4.8948e-18
-4.87673e-18
-4.85873e-18
-4.84078e-18
-4.8229e-18
-4.80507e-18
-4.78731e-18
-4.76961e-18
-4.75196e-18
-4.73438e-18
-4.71685e-18
-4.69938e-18
-4.68197e-18
-4.66461e-18
-4.64731e-18
-4.63006e-18
-4.61287e-18
-4.59574e-18
-4.57866e-18
-4.56163e-18
-4.54465e-18
-4.52773e-18
-4.51086e-18
-4.49405e-18
-4.47728e-18
-4.46056e-18
-4.4439e-18
-4.42728e-18
-4.41072e-18
-4.3942e-18
-4.37773e-18
-4.36131e-18
-4.34494e-18
-4.32862e-18
-4.31234e-18
-4.29611e-18
-4.27993e-18
-4.26379e-18
-4.2477e-18
-4.23166e-18
-4.21565e-18
-4.19967e-18
-4.18373e-18
-4.16782e-18
-4.15195e-18
-4.13612e-18
-4.12033e-18
-4.10458e-18
-4.08888e-18
-4.07322e-18
-4.0576e-18
-4.04202e-18
-4.02648e-18
-4.01099e-18
-3.99553e-18
-3.98012e-18
-3.96474e-18
-3.9494e-18
-3.93411e-18
-3.91885e-18
-3.90363e-18
-3.88845e-18
-3.8733e-18
-3.8582e-18
-3.84313e-18
-3.8281e-18
-3.81311e-18
-3.79815e-18
-3.78324e-18
-3.76835e-18
-3.75351e-18
-3.7387e-18
-3.72392e-18
-3.70918e-18
-3.69448e-18
-3.67981e-18
-3.66518e-18
-3.65058e-18
-3.63602e-18
-3.62149e-18
-3.60699e-18
-3.59253e-18
-3.5781e-18
-3.56371e-18
-3.54935e-18
-3.53502e-18
-3.52072e-18
-3.50646e-18
-3.49223e-18
-3.47804e-18
-3.46387e-18
-3.44974e-18
-3.43564e-18
-3.42157e-18
-3.40754e-18
-3.39353e-18
-3.37956e-18
-3.36562e-18
-3.35171e-18
-3.33783e-18
-3.32398e-18
-3.31016e-18
-3.29637e-18
-3.28262e-18
-3.26889e-18
-3.2552e-18
-3.24153e-18
-3.22789e-18
-3.21429e-18
-3.20071e-18
-3.18717e-18
-3.17365e-18
-3.16016e-18
-3.14671e-18
-3.13328e-18
-3.11988e-18
-3.10651e-18
-3.09317e-18
-3.07986e-18
-3.06657e-18
-3.05332e-18
-3.04009e-18
-3.0269e-18
-3.01373e-18
-3.00059e-18
-2.98748e-18
-2.97439e-18
-2.96134e-18
-2.94831e-18
-2.93532e-18
-2.92235e-18
-2.9094e-18
-2.89649e-18
-2.8836e-18
-2.87074e-18
-2.85791e-18
-2.84511e-18
-2.83234e-18
-2.81959e-18
-2.80687e-18
-2.79418e-18
-2.78151e-18
-2.76887e-18
-2.75626e-18
-2.74368e-18
-2.73113e-18
-2.7186e-18
-2.7061e-18
-2.69362e-18
-2.68118e-18
-2.66876e-18
-2.65637e-18
-2.644e-18
-2.63166e-18
-2.61935e-18
-2.60707e-18
-2.59482e-18
-2.58259e-18
-2.57038e-18
-2.55821e-18
-2.54606e-18
-2.53394e-18
-2.52184e-18
-2.50978e-18
-2.49774e-18
-2.48572e-18
-2.47374e-18
-2.46178e-18
-2.44985e-18
-2.43794e-18
-2.42606e-18
-2.41421e-18
-2.40238e-18
-2.39058e-18
-2.37881e-18
-2.36707e-18
-2.35535e-18
-2.34366e-18
-2.332e-18
-2.32036e-18
-2.30875e-18
-2.29717e-18
-2.28561e-18
-2.27408e-18
-2.26258e-18
-2.2511e-18
-2.23965e-18
-2.22823e-18
-2.21684e-18
-2.20547e-18
-2.19413e-18
-2.18282e-18
-2.17153e-18
-2.16027e-18
-2.14904e-18
-2.13783e-18
-2.12665e-18
-2.1155e-18
-2.10438e-18
-2.09328e-18
-2.08221e-18
-2.07117e-18
-2.06015e-18
-2.04916e-18
-2.0382e-18
-2.02727e-18
-2.01636e-18
-2.00548e-18
-1.99463e-18
-1.9838e-18
-1.973e-18
-1.96223e-18
-1.95149e-18
-1.94077e-18
-1.93009e-18
-1.91943e-18
-1.90879e-18
-1.89819e-18
-1.88761e-18
-1.87706e-18
-1.86653e-18
-1.85604e-18
-1.84557e-18
-1.83513e-18
-1.82472e-18
-1.81433e-18
-1.80397e-18
-1.79364e-18
-1.78334e-18
-1.77307e-18
-1.76282e-18
-1.7526e-18
-1.74241e-18
-1.73225e-18
-1.72212e-18
-1.71201e-18
-1.70193e-18
-1.69188e-18
-1.68186e-18
-1.67186e-18
-1.66189e-18
-1.65196e-18
-1.64204e-18
-1.63216e-18
-1.62231e-18
-1.61248e-18
-1.60268e-18
-1.59292e-18
-1.58317e-18
-1.57346e-18
-1.56378e-18
-1.55412e-18
-1.54449e-18
-1.53489e-18
-1.52532e-18
-1.51578e-18
-1.50627e-18
-1.49678e-18
-1.48733e-18
-1.4779e-18
-1.4685e-18
-1.45913e-18
-1.44979e-18
-1.44047e-18
-1.43119e-18
-1.42193e-18
-1.41271e-18
-1.40351e-18
-1.39434e-18
-1.3852e-18
-1.37609e-18
-1.367e-18
-1.35795e-18
-1.34892e-18
-1.33993e-18
-1.33096e-18
-1.32202e-18
-1.31312e-18
-1.30424e-18
-1.29539e-18
-1.28656e-18
-1.27777e-18
-1.26901e-18
-1.26028e-18
-1.25157e-18
-1.2429e-18
-1.23425e-18
-1.22563e-18
-1.21705e-18
-1.20849e-18
-1.19996e-18
-1.19146e-18
-1.18299e-18
-1.17455e-18
-1.16614e-18
-1.15776e-18
-1.14941e-18
-1.14109e-18
-1.13279e-18
-1.12453e-18
-1.1163e-18
-1.10809e-18
-1.09992e-18
-1.09177e-18
-1.08366e-18
-1.07557e-18
-1.06752e-18
-1.05949e-18
-1.0515e-18
-1.04353e-18
-1.03559e-18
-1.02769e-18
-1.01981e-18
-1.01196e-18
-1.00415e-18
-9.9636e-19
-9.88603e-19
-9.80876e-19
-9.73179e-19
-9.65511e-19
-9.57874e-19
-9.50266e-19
-9.42689e-19
-9.35141e-19
-9.27624e-19
-9.20137e-19
-9.12679e-19
-9.05252e-19
-8.97855e-19
-8.90488e-19
-8.83151e-19
-8.75844e-19
-8.68568e-19
-8.61321e-19
-8.54105e-19
-8.46919e-19
-8.39763e-19
-8.32637e-19
-8.25542e-19
-8.18477e-19
-8.11442e-19
-8.04437e-19
-7.97463e-19
-7.90518e-19
-7.83604e-19
-7.76721e-19
-7.69867e-19
-7.63044e-19
-7.56252e-19
-7.49489e-19
-7.42757e-19
-7.36056e-19
-7.29385e-19
-7.22744e-19
-7.16133e-19
-7.09553e-19
-7.03003e-19
-6.96484e-19
-6.89995e-19
-6.83536e-19
-6.77108e-19
-6.7071e-19
-6.64343e-19
-6.58006e-19
-6.517e-19
-6.45424e-19
-6.39179e-19
-6.32963e-19
-6.26779e-19
-6.20625e-19
-6.14501e-19
-6.08408e-19
-6.02345e-19
-5.96313e-19
-5.90311e-19
-5.8434e-19
-5.78399e-19
-5.72489e-19
-5.66609e-19
-5.6076e-19
-5.54941e-19
-5.49152e-19
-5.43395e-19
-5.37667e-19
-5.3197e-19
-5.26304e-19
-5.20668e-19
-5.15063e-19
-5.09488e-19
-5.03943e-19
-4.98429e-19
-4.92946e-19
-4.87493e-19
-4.8207e-19
-4.76678e-19
-4.71317e-19
-4.65986e-19
-4.60685e-19
-4.55415e-19
-4.50175e-19
-4.44966e-19
-4.39787e-19
-4.34639e-19
-4.29521e-19
-4.24433e-19
-4.19376e-19
-4.1435e-19
-4.09354e-19
-4.04388e-19
-3.99452e-19
-3.94547e-19
-3.89673e-19
-3.84829e-19
-3.80015e-19
-3.75231e-19
-3.70478e-19
-3.65756e-19
-3.61063e-19
-3.56401e-19
-3.5177e-19
-3.47168e-19
-3.42597e-19
-3.38056e-19
-3.33546e-19
-3.29066e-19
-3.24616e-19
-3.20197e-19
-3.15807e-19
-3.11448e-19
-3.07119e-19
-3.02821e-19
-2.98553e-19
-2.94315e-19
-2.90107e-19
-2.85929e-19
-2.81782e-19
-2.77665e-19
-2.73578e-19
-2.69521e-19
-2.65494e-19
-2.61498e-19
-2.57532e-19
-2.53596e-19
-2.4969e-19
-2.45814e-19
-2.41969e-19
-2.38153e-19
-2.34368e-19
-2.30613e-19
-2.26888e-19
-2.23193e-19
-2.19528e-19
-2.15894e-19
-2.12289e-19
-2.08715e-19
-2.0517e-19
-2.01656e-19
-1.98172e-19
-1.94718e-19
-1.91294e-19
-1.879e-19
-1.84536e-19
-1.81202e-19
-1.77898e-19
-1.74624e-19
-1.7138e-19
-1.68166e-19
-1.64982e-19
-1.61827e-19
-1.58703e-19
-1.55608e-19
-1.52543e-19
-1.49508e-19
-1.46503e-19
-1.43527e-19
-1.40581e-19
-1.37664e-19
-1.34777e-19
-1.31919e-19
-1.2909e-19
-1.26291e-19
-1.2352e-19
-1.20779e-19
-1.18067e-19
-1.15383e-19
-1.12728e-19
-1.10101e-19
-1.07503e-19
-1.04933e-19
-1.02391e-19
-9.98767e-20
-9.73902e-20
-9.49311e-20
-9.24992e-20
-9.00944e-20
-8.77163e-20
-8.53648e-20
-8.30395e-20
-8.07401e-20
-7.84665e-20
-7.62181e-20
-7.39949e-20
-7.17963e-20
-6.9622e-20
-6.74717e-20
-6.5345e-20
-6.32415e-20
-6.11607e-20
-5.91023e-20
-5.70657e-20
-5.50506e-20
-5.30564e-20
-5.10826e-20
-4.91288e-20
-4.71943e-20
-4.52787e-20
-4.33814e-20
-4.15019e-20
-3.96394e-20
-3.77935e-20
-3.59635e-20
-3.41488e-20
-3.23488e-20
-3.05627e-20
-2.879e-20
-2.70299e-20
-2.52817e-20
-2.35448e-20
-2.18185e-20
-2.0102e-20
-1.83946e-20
-1.66956e-20
-1.50042e-20
-1.33196e-20
-1.16412e-20
-9.9682e-21
-8.29977e-21
-6.63519e-21
-4.97368e-21
-3.31447e-21
-1.6568e-21
)
;

boundaryField
{
    top_wall
    {
        type            calculated;
        value           uniform 0;
    }
    inlet
    {
        type            cyclic;
        value           nonuniform List<scalar> 
1000
(
-2.37006e-05
-7.10071e-05
-0.000118219
-0.000165336
-0.000212358
-0.000259285
-0.000306118
-0.000352855
-0.000399498
-0.000446046
-0.000492499
-0.000538858
-0.000585122
-0.00063129
-0.000677364
-0.000723344
-0.000769228
-0.000815018
-0.000860713
-0.000906313
-0.000951818
-0.000997228
-0.00104254
-0.00108776
-0.00113289
-0.00117792
-0.00122286
-0.0012677
-0.00131245
-0.0013571
-0.00140166
-0.00144612
-0.00149049
-0.00153476
-0.00157894
-0.00162302
-0.00166701
-0.0017109
-0.0017547
-0.0017984
-0.00184201
-0.00188553
-0.00192895
-0.00197227
-0.0020155
-0.00205864
-0.00210168
-0.00214462
-0.00218747
-0.00223023
-0.00227289
-0.00231546
-0.00235793
-0.0024003
-0.00244259
-0.00248477
-0.00252687
-0.00256886
-0.00261076
-0.00265257
-0.00269429
-0.0027359
-0.00277743
-0.00281886
-0.00286019
-0.00290143
-0.00294257
-0.00298362
-0.00302458
-0.00306544
-0.0031062
-0.00314687
-0.00318745
-0.00322793
-0.00326831
-0.0033086
-0.0033488
-0.0033889
-0.00342891
-0.00346882
-0.00350864
-0.00354836
-0.00358798
-0.00362752
-0.00366695
-0.0037063
-0.00374554
-0.0037847
-0.00382376
-0.00386272
-0.00390159
-0.00394036
-0.00397904
-0.00401763
-0.00405612
-0.00409451
-0.00413281
-0.00417101
-0.00420912
-0.00424714
-0.00428506
-0.00432289
-0.00436062
-0.00439825
-0.0044358
-0.00447324
-0.00451059
-0.00454785
-0.00458501
-0.00462208
-0.00465905
-0.00469593
-0.00473271
-0.0047694
-0.00480599
-0.00484249
-0.0048789
-0.0049152
-0.00495142
-0.00498754
-0.00502356
-0.00505949
-0.00509533
-0.00513107
-0.00516671
-0.00520226
-0.00523772
-0.00527308
-0.00530834
-0.00534352
-0.00537859
-0.00541357
-0.00544846
-0.00548325
-0.00551795
-0.00555255
-0.00558706
-0.00562147
-0.00565579
-0.00569001
-0.00572414
-0.00575817
-0.00579211
-0.00582595
-0.0058597
-0.00589336
-0.00592692
-0.00596038
-0.00599375
-0.00602703
-0.00606021
-0.00609329
-0.00612628
-0.00615918
-0.00619198
-0.00622468
-0.00625729
-0.00628981
-0.00632223
-0.00635456
-0.00638679
-0.00641893
-0.00645097
-0.00648292
-0.00651477
-0.00654653
-0.00657819
-0.00660976
-0.00664123
-0.00667261
-0.0067039
-0.00673508
-0.00676618
-0.00679718
-0.00682808
-0.00685889
-0.00688961
-0.00692023
-0.00695075
-0.00698118
-0.00701152
-0.00704176
-0.0070719
-0.00710196
-0.00713191
-0.00716177
-0.00719154
-0.00722121
-0.00725079
-0.00728027
-0.00730966
-0.00733895
-0.00736815
-0.00739725
-0.00742626
-0.00745517
-0.00748399
-0.00751272
-0.00754135
-0.00756988
-0.00759832
-0.00762666
-0.00765491
-0.00768307
-0.00771113
-0.00773909
-0.00776697
-0.00779474
-0.00782242
-0.00785001
-0.0078775
-0.0079049
-0.0079322
-0.0079594
-0.00798652
-0.00801353
-0.00804046
-0.00806728
-0.00809402
-0.00812065
-0.0081472
-0.00817365
-0.0082
-0.00822626
-0.00825242
-0.00827849
-0.00830446
-0.00833034
-0.00835613
-0.00838182
-0.00840741
-0.00843291
-0.00845832
-0.00848363
-0.00850885
-0.00853397
-0.00855899
-0.00858392
-0.00860876
-0.0086335
-0.00865815
-0.0086827
-0.00870716
-0.00873152
-0.00875579
-0.00877996
-0.00880404
-0.00882802
-0.00885191
-0.00887571
-0.0088994
-0.00892301
-0.00894652
-0.00896993
-0.00899325
-0.00901648
-0.00903961
-0.00906264
-0.00908558
-0.00910843
-0.00913118
-0.00915383
-0.0091764
-0.00919886
-0.00922123
-0.00924351
-0.00926569
-0.00928778
-0.00930977
-0.00933167
-0.00935347
-0.00937518
-0.00939679
-0.00941831
-0.00943973
-0.00946106
-0.0094823
-0.00950344
-0.00952448
-0.00954543
-0.00956628
-0.00958704
-0.00960771
-0.00962828
-0.00964875
-0.00966913
-0.00968942
-0.00970961
-0.00972971
-0.00974971
-0.00976962
-0.00978943
-0.00980914
-0.00982877
-0.00984829
-0.00986773
-0.00988706
-0.00990631
-0.00992545
-0.00994451
-0.00996347
-0.00998233
-0.0100011
-0.0100198
-0.0100384
-0.0100568
-0.0100752
-0.0100935
-0.0101117
-0.0101298
-0.0101478
-0.0101658
-0.0101836
-0.0102013
-0.0102189
-0.0102365
-0.0102539
-0.0102713
-0.0102885
-0.0103057
-0.0103227
-0.0103397
-0.0103566
-0.0103733
-0.01039
-0.0104066
-0.0104231
-0.0104395
-0.0104558
-0.010472
-0.0104881
-0.0105042
-0.0105201
-0.0105359
-0.0105516
-0.0105673
-0.0105828
-0.0105983
-0.0106136
-0.0106289
-0.0106441
-0.0106591
-0.0106741
-0.010689
-0.0107038
-0.0107185
-0.0107331
-0.0107476
-0.010762
-0.0107763
-0.0107905
-0.0108046
-0.0108187
-0.0108326
-0.0108464
-0.0108602
-0.0108738
-0.0108874
-0.0109009
-0.0109142
-0.0109275
-0.0109407
-0.0109537
-0.0109667
-0.0109796
-0.0109924
-0.0110051
-0.0110177
-0.0110302
-0.0110427
-0.011055
-0.0110672
-0.0110793
-0.0110914
-0.0111033
-0.0111152
-0.0111269
-0.0111386
-0.0111501
-0.0111616
-0.011173
-0.0111843
-0.0111955
-0.0112065
-0.0112175
-0.0112284
-0.0112392
-0.01125
-0.0112606
-0.0112711
-0.0112815
-0.0112919
-0.0113021
-0.0113122
-0.0113223
-0.0113322
-0.0113421
-0.0113519
-0.0113615
-0.0113711
-0.0113806
-0.01139
-0.0113993
-0.0114084
-0.0114175
-0.0114265
-0.0114355
-0.0114443
-0.011453
-0.0114616
-0.0114702
-0.0114786
-0.0114869
-0.0114952
-0.0115033
-0.0115114
-0.0115193
-0.0115272
-0.011535
-0.0115427
-0.0115502
-0.0115577
-0.0115651
-0.0115724
-0.0115796
-0.0115867
-0.0115938
-0.0116007
-0.0116075
-0.0116142
-0.0116209
-0.0116274
-0.0116338
-0.0116402
-0.0116465
-0.0116526
-0.0116587
-0.0116647
-0.0116705
-0.0116763
-0.011682
-0.0116876
-0.0116931
-0.0116985
-0.0117038
-0.011709
-0.0117141
-0.0117192
-0.0117241
-0.0117289
-0.0117337
-0.0117383
-0.0117429
-0.0117473
-0.0117517
-0.0117559
-0.0117601
-0.0117642
-0.0117682
-0.011772
-0.0117758
-0.0117795
-0.0117831
-0.0117866
-0.0117901
-0.0117934
-0.0117966
-0.0117997
-0.0118028
-0.0118057
-0.0118085
-0.0118113
-0.0118139
-0.0118165
-0.011819
-0.0118213
-0.0118236
-0.0118258
-0.0118279
-0.0118299
-0.0118318
-0.0118336
-0.0118353
-0.0118369
-0.0118384
-0.0118398
-0.0118411
-0.0118424
-0.0118435
-0.0118446
-0.0118455
-0.0118464
-0.0118471
-0.0118478
-0.0118483
-0.0118488
-0.0118492
-0.0118495
-0.0118497
-0.0118498
-0.0118498
-0.0118497
-0.0118495
-0.0118492
-0.0118488
-0.0118483
-0.0118478
-0.0118471
-0.0118464
-0.0118455
-0.0118446
-0.0118435
-0.0118424
-0.0118411
-0.0118398
-0.0118384
-0.0118369
-0.0118353
-0.0118336
-0.0118318
-0.0118299
-0.0118279
-0.0118258
-0.0118236
-0.0118213
-0.011819
-0.0118165
-0.0118139
-0.0118113
-0.0118085
-0.0118057
-0.0118028
-0.0117997
-0.0117966
-0.0117934
-0.0117901
-0.0117866
-0.0117831
-0.0117795
-0.0117758
-0.011772
-0.0117682
-0.0117642
-0.0117601
-0.0117559
-0.0117517
-0.0117473
-0.0117429
-0.0117383
-0.0117337
-0.0117289
-0.0117241
-0.0117192
-0.0117141
-0.011709
-0.0117038
-0.0116985
-0.0116931
-0.0116876
-0.011682
-0.0116763
-0.0116705
-0.0116647
-0.0116587
-0.0116526
-0.0116465
-0.0116402
-0.0116338
-0.0116274
-0.0116209
-0.0116142
-0.0116075
-0.0116007
-0.0115938
-0.0115867
-0.0115796
-0.0115724
-0.0115651
-0.0115577
-0.0115502
-0.0115427
-0.011535
-0.0115272
-0.0115193
-0.0115114
-0.0115033
-0.0114952
-0.0114869
-0.0114786
-0.0114702
-0.0114616
-0.011453
-0.0114443
-0.0114355
-0.0114265
-0.0114175
-0.0114084
-0.0113993
-0.01139
-0.0113806
-0.0113711
-0.0113615
-0.0113519
-0.0113421
-0.0113322
-0.0113223
-0.0113122
-0.0113021
-0.0112919
-0.0112815
-0.0112711
-0.0112606
-0.01125
-0.0112392
-0.0112284
-0.0112175
-0.0112065
-0.0111955
-0.0111843
-0.011173
-0.0111616
-0.0111501
-0.0111386
-0.0111269
-0.0111152
-0.0111033
-0.0110914
-0.0110793
-0.0110672
-0.011055
-0.0110427
-0.0110302
-0.0110177
-0.0110051
-0.0109924
-0.0109796
-0.0109667
-0.0109537
-0.0109407
-0.0109275
-0.0109142
-0.0109009
-0.0108874
-0.0108738
-0.0108602
-0.0108464
-0.0108326
-0.0108187
-0.0108046
-0.0107905
-0.0107763
-0.010762
-0.0107476
-0.0107331
-0.0107185
-0.0107038
-0.010689
-0.0106741
-0.0106591
-0.0106441
-0.0106289
-0.0106136
-0.0105983
-0.0105828
-0.0105673
-0.0105516
-0.0105359
-0.0105201
-0.0105042
-0.0104881
-0.010472
-0.0104558
-0.0104395
-0.0104231
-0.0104066
-0.01039
-0.0103733
-0.0103566
-0.0103397
-0.0103227
-0.0103057
-0.0102885
-0.0102713
-0.0102539
-0.0102365
-0.0102189
-0.0102013
-0.0101836
-0.0101658
-0.0101478
-0.0101298
-0.0101117
-0.0100935
-0.0100752
-0.0100568
-0.0100384
-0.0100198
-0.0100011
-0.00998233
-0.00996347
-0.00994451
-0.00992545
-0.00990631
-0.00988706
-0.00986773
-0.00984829
-0.00982877
-0.00980914
-0.00978943
-0.00976962
-0.00974971
-0.00972971
-0.00970961
-0.00968942
-0.00966913
-0.00964875
-0.00962828
-0.00960771
-0.00958704
-0.00956628
-0.00954543
-0.00952448
-0.00950344
-0.0094823
-0.00946106
-0.00943973
-0.00941831
-0.00939679
-0.00937518
-0.00935347
-0.00933167
-0.00930977
-0.00928778
-0.00926569
-0.00924351
-0.00922123
-0.00919886
-0.0091764
-0.00915383
-0.00913118
-0.00910843
-0.00908558
-0.00906264
-0.00903961
-0.00901648
-0.00899325
-0.00896993
-0.00894652
-0.00892301
-0.0088994
-0.00887571
-0.00885191
-0.00882802
-0.00880404
-0.00877996
-0.00875579
-0.00873152
-0.00870716
-0.0086827
-0.00865815
-0.0086335
-0.00860876
-0.00858392
-0.00855899
-0.00853397
-0.00850885
-0.00848363
-0.00845832
-0.00843291
-0.00840741
-0.00838182
-0.00835613
-0.00833034
-0.00830446
-0.00827849
-0.00825242
-0.00822626
-0.0082
-0.00817365
-0.0081472
-0.00812065
-0.00809402
-0.00806728
-0.00804046
-0.00801353
-0.00798652
-0.0079594
-0.0079322
-0.0079049
-0.0078775
-0.00785001
-0.00782242
-0.00779474
-0.00776697
-0.00773909
-0.00771113
-0.00768307
-0.00765491
-0.00762666
-0.00759832
-0.00756988
-0.00754135
-0.00751272
-0.00748399
-0.00745517
-0.00742626
-0.00739725
-0.00736815
-0.00733895
-0.00730966
-0.00728027
-0.00725079
-0.00722121
-0.00719154
-0.00716177
-0.00713191
-0.00710196
-0.0070719
-0.00704176
-0.00701152
-0.00698118
-0.00695075
-0.00692023
-0.00688961
-0.00685889
-0.00682808
-0.00679718
-0.00676618
-0.00673508
-0.0067039
-0.00667261
-0.00664123
-0.00660976
-0.00657819
-0.00654653
-0.00651477
-0.00648292
-0.00645097
-0.00641893
-0.00638679
-0.00635456
-0.00632223
-0.00628981
-0.00625729
-0.00622468
-0.00619198
-0.00615918
-0.00612628
-0.00609329
-0.00606021
-0.00602703
-0.00599375
-0.00596038
-0.00592692
-0.00589336
-0.0058597
-0.00582595
-0.00579211
-0.00575817
-0.00572414
-0.00569001
-0.00565579
-0.00562147
-0.00558706
-0.00555255
-0.00551795
-0.00548325
-0.00544846
-0.00541357
-0.00537859
-0.00534351
-0.00530834
-0.00527308
-0.00523772
-0.00520226
-0.00516671
-0.00513107
-0.00509533
-0.00505949
-0.00502356
-0.00498754
-0.00495142
-0.0049152
-0.0048789
-0.00484249
-0.00480599
-0.0047694
-0.00473271
-0.00469593
-0.00465905
-0.00462208
-0.00458501
-0.00454785
-0.00451059
-0.00447324
-0.00443579
-0.00439825
-0.00436062
-0.00432289
-0.00428506
-0.00424714
-0.00420912
-0.00417101
-0.00413281
-0.00409451
-0.00405612
-0.00401763
-0.00397904
-0.00394036
-0.00390159
-0.00386272
-0.00382376
-0.0037847
-0.00374554
-0.0037063
-0.00366695
-0.00362752
-0.00358798
-0.00354836
-0.00350864
-0.00346882
-0.00342891
-0.0033889
-0.0033488
-0.0033086
-0.00326831
-0.00322793
-0.00318745
-0.00314687
-0.0031062
-0.00306544
-0.00302458
-0.00298362
-0.00294257
-0.00290143
-0.00286019
-0.00281886
-0.00277743
-0.0027359
-0.00269429
-0.00265257
-0.00261076
-0.00256886
-0.00252686
-0.00248477
-0.00244259
-0.0024003
-0.00235793
-0.00231546
-0.00227289
-0.00223023
-0.00218747
-0.00214462
-0.00210168
-0.00205864
-0.0020155
-0.00197227
-0.00192895
-0.00188553
-0.00184201
-0.0017984
-0.0017547
-0.0017109
-0.00166701
-0.00162302
-0.00157894
-0.00153476
-0.00149049
-0.00144612
-0.00140166
-0.0013571
-0.00131245
-0.0012677
-0.00122286
-0.00117792
-0.00113289
-0.00108776
-0.00104254
-0.000997228
-0.000951818
-0.000906313
-0.000860713
-0.000815018
-0.000769228
-0.000723344
-0.000677364
-0.00063129
-0.000585122
-0.000538858
-0.000492499
-0.000446046
-0.000399498
-0.000352855
-0.000306118
-0.000259285
-0.000212358
-0.000165336
-0.000118219
-7.10071e-05
-2.37006e-05
)
;
    }
    bot_wall
    {
        type            calculated;
        value           uniform 0;
    }
    outlet
    {
        type            cyclic;
        value           nonuniform List<scalar> 
1000
(
2.37006e-05
7.10071e-05
0.000118219
0.000165336
0.000212358
0.000259285
0.000306118
0.000352855
0.000399498
0.000446046
0.000492499
0.000538858
0.000585122
0.00063129
0.000677364
0.000723344
0.000769228
0.000815018
0.000860713
0.000906313
0.000951818
0.000997228
0.00104254
0.00108776
0.00113289
0.00117792
0.00122286
0.0012677
0.00131245
0.0013571
0.00140166
0.00144612
0.00149049
0.00153476
0.00157894
0.00162302
0.00166701
0.0017109
0.0017547
0.0017984
0.00184201
0.00188553
0.00192895
0.00197227
0.0020155
0.00205864
0.00210168
0.00214462
0.00218747
0.00223023
0.00227289
0.00231546
0.00235793
0.0024003
0.00244259
0.00248477
0.00252687
0.00256886
0.00261076
0.00265257
0.00269429
0.0027359
0.00277743
0.00281886
0.00286019
0.00290143
0.00294257
0.00298362
0.00302458
0.00306544
0.0031062
0.00314687
0.00318745
0.00322793
0.00326831
0.0033086
0.0033488
0.0033889
0.00342891
0.00346882
0.00350864
0.00354836
0.00358798
0.00362752
0.00366695
0.0037063
0.00374554
0.0037847
0.00382376
0.00386272
0.00390159
0.00394036
0.00397904
0.00401763
0.00405612
0.00409451
0.00413281
0.00417101
0.00420912
0.00424714
0.00428506
0.00432289
0.00436062
0.00439825
0.0044358
0.00447324
0.00451059
0.00454785
0.00458501
0.00462208
0.00465905
0.00469593
0.00473271
0.0047694
0.00480599
0.00484249
0.0048789
0.0049152
0.00495142
0.00498754
0.00502356
0.00505949
0.00509533
0.00513107
0.00516671
0.00520226
0.00523772
0.00527308
0.00530834
0.00534352
0.00537859
0.00541357
0.00544846
0.00548325
0.00551795
0.00555255
0.00558706
0.00562147
0.00565579
0.00569001
0.00572414
0.00575817
0.00579211
0.00582595
0.0058597
0.00589336
0.00592692
0.00596038
0.00599375
0.00602703
0.00606021
0.00609329
0.00612628
0.00615918
0.00619198
0.00622468
0.00625729
0.00628981
0.00632223
0.00635456
0.00638679
0.00641893
0.00645097
0.00648292
0.00651477
0.00654653
0.00657819
0.00660976
0.00664123
0.00667261
0.0067039
0.00673508
0.00676618
0.00679718
0.00682808
0.00685889
0.00688961
0.00692023
0.00695075
0.00698118
0.00701152
0.00704176
0.0070719
0.00710196
0.00713191
0.00716177
0.00719154
0.00722121
0.00725079
0.00728027
0.00730966
0.00733895
0.00736815
0.00739725
0.00742626
0.00745517
0.00748399
0.00751272
0.00754135
0.00756988
0.00759832
0.00762666
0.00765491
0.00768307
0.00771113
0.00773909
0.00776697
0.00779474
0.00782242
0.00785001
0.0078775
0.0079049
0.0079322
0.0079594
0.00798652
0.00801353
0.00804046
0.00806728
0.00809402
0.00812065
0.0081472
0.00817365
0.0082
0.00822626
0.00825242
0.00827849
0.00830446
0.00833034
0.00835613
0.00838182
0.00840741
0.00843291
0.00845832
0.00848363
0.00850885
0.00853397
0.00855899
0.00858392
0.00860876
0.0086335
0.00865815
0.0086827
0.00870716
0.00873152
0.00875579
0.00877996
0.00880404
0.00882802
0.00885191
0.00887571
0.0088994
0.00892301
0.00894652
0.00896993
0.00899325
0.00901648
0.00903961
0.00906264
0.00908558
0.00910843
0.00913118
0.00915383
0.0091764
0.00919886
0.00922123
0.00924351
0.00926569
0.00928778
0.00930977
0.00933167
0.00935347
0.00937518
0.00939679
0.00941831
0.00943973
0.00946106
0.0094823
0.00950344
0.00952448
0.00954543
0.00956628
0.00958704
0.00960771
0.00962828
0.00964875
0.00966913
0.00968942
0.00970961
0.00972971
0.00974971
0.00976962
0.00978943
0.00980914
0.00982877
0.00984829
0.00986773
0.00988706
0.00990631
0.00992545
0.00994451
0.00996347
0.00998233
0.0100011
0.0100198
0.0100384
0.0100568
0.0100752
0.0100935
0.0101117
0.0101298
0.0101478
0.0101658
0.0101836
0.0102013
0.0102189
0.0102365
0.0102539
0.0102713
0.0102885
0.0103057
0.0103227
0.0103397
0.0103566
0.0103733
0.01039
0.0104066
0.0104231
0.0104395
0.0104558
0.010472
0.0104881
0.0105042
0.0105201
0.0105359
0.0105516
0.0105673
0.0105828
0.0105983
0.0106136
0.0106289
0.0106441
0.0106591
0.0106741
0.010689
0.0107038
0.0107185
0.0107331
0.0107476
0.010762
0.0107763
0.0107905
0.0108046
0.0108187
0.0108326
0.0108464
0.0108602
0.0108738
0.0108874
0.0109009
0.0109142
0.0109275
0.0109407
0.0109537
0.0109667
0.0109796
0.0109924
0.0110051
0.0110177
0.0110302
0.0110427
0.011055
0.0110672
0.0110793
0.0110914
0.0111033
0.0111152
0.0111269
0.0111386
0.0111501
0.0111616
0.011173
0.0111843
0.0111955
0.0112065
0.0112175
0.0112284
0.0112392
0.01125
0.0112606
0.0112711
0.0112815
0.0112919
0.0113021