/*--------------------------------*- C++ -*----------------------------------*\
| =========                 |                                                 |
| \\      /  F ield         | OpenFOAM: The Open Source CFD Toolbox           |
|  \\    /   O peration     | Version:  2406                                  |
|   \\  /    A nd           | Website:  www.openfoam.com                      |
|    \\/     M anipulation  |                                                 |
\*---------------------------------------------------------------------------*/
FoamFile
{
    version     2.0;
    format      ascii;
    arch        "LSB;label=32;scalar=64";
    class       volVectorField;
    location    "100";
    object      U;
}
// * * * * * * * * * * * * * * * * * * * * * * * * * * * * * * * * * * * * * //

dimensions      [0 1 -1 0 0 0 0];

internalField   nonuniform List<vector> 
1000
(
(0.237006 -1.61918e-17 0)
(0.710071 -2.53272e-17 0)
(1.18219 -2.87428e-17 0)
(1.65336 -2.64602e-17 0)
(2.12358 -2.59657e-17 0)
(2.59285 -2.58206e-17 0)
(3.06118 -2.56715e-17 0)
(3.52855 -2.53659e-17 0)
(3.99498 -2.49152e-17 0)
(4.46046 -2.47053e-17 0)
(4.92499 -2.50349e-17 0)
(5.38858 -2.53217e-17 0)
(5.85122 -2.55273e-17 0)
(6.3129 -2.58328e-17 0)
(6.77364 -2.61322e-17 0)
(7.23344 -2.64676e-17 0)
(7.69228 -2.65999e-17 0)
(8.15018 -2.65382e-17 0)
(8.60713 -2.6474e-17 0)
(9.06313 -2.64184e-17 0)
(9.51818 -2.63779e-17 0)
(9.97228 -2.63562e-17 0)
(10.4254 -2.6355e-17 0)
(10.8776 -2.63746e-17 0)
(11.3289 -2.64145e-17 0)
(11.7792 -2.64739e-17 0)
(12.2286 -2.65512e-17 0)
(12.677 -2.66452e-17 0)
(13.1245 -2.67544e-17 0)
(13.571 -2.68773e-17 0)
(14.0166 -2.70126e-17 0)
(14.4612 -2.71591e-17 0)
(14.9049 -2.73156e-17 0)
(15.3476 -2.74811e-17 0)
(15.7894 -2.76547e-17 0)
(16.2302 -2.78357e-17 0)
(16.6701 -2.80235e-17 0)
(17.109 -2.82174e-17 0)
(17.547 -2.84172e-17 0)
(17.984 -2.86223e-17 0)
(18.4201 -2.88326e-17 0)
(18.8553 -2.90478e-17 0)
(19.2895 -2.92678e-17 0)
(19.7227 -2.94926e-17 0)
(20.155 -2.9722e-17 0)
(20.5864 -2.99561e-17 0)
(21.0168 -3.01949e-17 0)
(21.4462 -3.04384e-17 0)
(21.8747 -3.06869e-17 0)
(22.3023 -3.09402e-17 0)
(22.7289 -3.11986e-17 0)
(23.1546 -3.14622e-17 0)
(23.5793 -3.17311e-17 0)
(24.003 -3.20055e-17 0)
(24.4259 -3.22855e-17 0)
(24.8477 -3.25712e-17 0)
(25.2687 -3.28629e-17 0)
(25.6886 -3.31606e-17 0)
(26.1076 -3.34645e-17 0)
(26.5257 -3.37748e-17 0)
(26.9429 -3.40916e-17 0)
(27.359 -3.4415e-17 0)
(27.7743 -3.47453e-17 0)
(28.1886 -3.50826e-17 0)
(28.6019 -3.54269e-17 0)
(29.0143 -3.57785e-17 0)
(29.4257 -3.61375e-17 0)
(29.8362 -3.65041e-17 0)
(30.2458 -3.68783e-17 0)
(30.6544 -3.72604e-17 0)
(31.062 -3.76504e-17 0)
(31.4687 -3.80485e-17 0)
(31.8745 -3.84549e-17 0)
(32.2793 -3.88696e-17 0)
(32.6831 -3.92929e-17 0)
(33.086 -3.97249e-17 0)
(33.488 -4.01657e-17 0)
(33.889 -4.06154e-17 0)
(34.2891 -4.10743e-17 0)
(34.6882 -4.15425e-17 0)
(35.0864 -4.20201e-17 0)
(35.4836 -4.25072e-17 0)
(35.8798 -4.30041e-17 0)
(36.2752 -4.3511e-17 0)
(36.6695 -4.40278e-17 0)
(37.063 -4.4555e-17 0)
(37.4554 -4.50925e-17 0)
(37.847 -4.56405e-17 0)
(38.2376 -4.61992e-17 0)
(38.6272 -4.67687e-17 0)
(39.0159 -4.73492e-17 0)
(39.4036 -4.79407e-17 0)
(39.7904 -4.85433e-17 0)
(40.1763 -4.9157e-17 0)
(40.5612 -4.97819e-17 0)
(40.9451 -5.04178e-17 0)
(41.3281 -5.10647e-17 0)
(41.7101 -5.17223e-17 0)
(42.0912 -5.23903e-17 0)
(42.4714 -5.30684e-17 0)
(42.8506 -5.37559e-17 0)
(43.2289 -5.44524e-17 0)
(43.6062 -5.51568e-17 0)
(43.9825 -5.58683e-17 0)
(44.358 -5.65856e-17 0)
(44.7324 -5.73074e-17 0)
(45.1059 -5.8032e-17 0)
(45.4785 -5.87577e-17 0)
(45.8501 -5.94822e-17 0)
(46.2208 -6.02032e-17 0)
(46.5905 -6.09183e-17 0)
(46.9593 -6.16245e-17 0)
(47.3271 -6.23188e-17 0)
(47.694 -6.2998e-17 0)
(48.0599 -6.36589e-17 0)
(48.4249 -6.42978e-17 0)
(48.789 -6.49114e-17 0)
(49.152 -6.54962e-17 0)
(49.5142 -6.60491e-17 0)
(49.8754 -6.65669e-17 0)
(50.2356 -6.70471e-17 0)
(50.5949 -6.74875e-17 0)
(50.9533 -6.78865e-17 0)
(51.3107 -6.82435e-17 0)
(51.6671 -6.85587e-17 0)
(52.0226 -6.88335e-17 0)
(52.3772 -6.90709e-17 0)
(52.7308 -6.92758e-17 0)
(53.0834 -6.94554e-17 0)
(53.4352 -6.96205e-17 0)
(53.7859 -6.97819e-17 0)
(54.1357 -6.99555e-17 0)
(54.4846 -7.01637e-17 0)
(54.8325 -7.04369e-17 0)
(55.1795 -7.08158e-17 0)
(55.5255 -7.13554e-17 0)
(55.8706 -7.21299e-17 0)
(56.2147 -7.31959e-17 0)
(56.5579 -7.47656e-17 0)
(56.9001 -7.58773e-17 0)
(57.2414 -7.01327e-17 0)
(57.5817 -6.43599e-17 0)
(57.9211 -6.54624e-17 0)
(58.2595 -6.7002e-17 0)
(58.597 -6.80535e-17 0)
(58.9336 -6.88266e-17 0)
(59.2692 -6.9376e-17 0)
(59.6038 -6.9774e-17 0)
(59.9375 -7.00747e-17 0)
(60.2703 -7.03183e-17 0)
(60.6021 -7.05346e-17 0)
(60.9329 -7.07457e-17 0)
(61.2628 -7.09674e-17 0)
(61.5918 -7.12108e-17 0)
(61.9198 -7.14831e-17 0)
(62.2468 -7.17871e-17 0)
(62.5729 -7.21266e-17 0)
(62.8981 -7.25067e-17 0)
(63.2223 -7.29297e-17 0)
(63.5456 -7.33964e-17 0)
(63.8679 -7.39061e-17 0)
(64.1893 -7.44573e-17 0)
(64.5097 -7.50471e-17 0)
(64.8292 -7.56725e-17 0)
(65.1477 -7.63296e-17 0)
(65.4653 -7.70145e-17 0)
(65.7819 -7.77232e-17 0)
(66.0976 -7.84515e-17 0)
(66.4123 -7.91958e-17 0)
(66.7261 -7.98256e-17 0)
(67.039 -8.20038e-17 0)
(67.3508 -8.80056e-17 0)
(67.6618 -9.40422e-17 0)
(67.9718 -9.62389e-17 0)
(68.2808 -9.68746e-17 0)
(68.5889 -9.76156e-17 0)
(68.8961 -9.83305e-17 0)
(69.2023 -9.90142e-17 0)
(69.5075 -9.96606e-17 0)
(69.8118 -1.00263e-16 0)
(70.1152 -1.00813e-16 0)
(70.4176 -1.01302e-16 0)
(70.719 -1.01719e-16 0)
(71.0196 -1.02094e-16 0)
(71.3191 -1.02416e-16 0)
(71.6177 -1.02679e-16 0)
(71.9154 -1.02879e-16 0)
(72.2121 -1.03007e-16 0)
(72.5079 -1.0306e-16 0)
(72.8027 -1.03036e-16 0)
(73.0966 -1.02936e-16 0)
(73.3895 -1.02764e-16 0)
(73.6815 -1.02533e-16 0)
(73.9725 -1.02261e-16 0)
(74.2626 -1.01977e-16 0)
(74.5517 -1.0172e-16 0)
(74.8399 -1.01501e-16 0)
(75.1272 -1.01382e-16 0)
(75.4135 -1.01441e-16 0)
(75.6988 -1.01785e-16 0)
(75.9832 -1.02553e-16 0)
(76.2666 -1.03856e-16 0)
(76.5491 -1.06238e-16 0)
(76.8307 -1.08786e-16 0)
(77.1113 -1.1166e-16 0)
(77.3909 -1.14941e-16 0)
(77.6697 -1.1773e-16 0)
(77.9474 -1.20121e-16 0)
(78.2242 -1.21811e-16 0)
(78.5001 -1.22991e-16 0)
(78.775 -1.23776e-16 0)
(79.049 -1.24261e-16 0)
(79.322 -1.24484e-16 0)
(79.594 -1.24513e-16 0)
(79.8652 -1.24406e-16 0)
(80.1353 -1.24172e-16 0)
(80.4046 -1.23846e-16 0)
(80.6728 -1.2346e-16 0)
(80.9402 -1.23036e-16 0)
(81.2065 -1.22592e-16 0)
(81.472 -1.22142e-16 0)
(81.7365 -1.21692e-16 0)
(82 -1.21244e-16 0)
(82.2626 -1.208e-16 0)
(82.5242 -1.20358e-16 0)
(82.7849 -1.19918e-16 0)
(83.0446 -1.19477e-16 0)
(83.3034 -1.19035e-16 0)
(83.5613 -1.18589e-16 0)
(83.8182 -1.18138e-16 0)
(84.0741 -1.17684e-16 0)
(84.3291 -1.17224e-16 0)
(84.5832 -1.16759e-16 0)
(84.8363 -1.16289e-16 0)
(85.0885 -1.15816e-16 0)
(85.3397 -1.15339e-16 0)
(85.5899 -1.1486e-16 0)
(85.8392 -1.14379e-16 0)
(86.0876 -1.13897e-16 0)
(86.335 -1.13415e-16 0)
(86.5815 -1.12933e-16 0)
(86.827 -1.12453e-16 0)
(87.0716 -1.11975e-16 0)
(87.3152 -1.11499e-16 0)
(87.5579 -1.11026e-16 0)
(87.7996 -1.10556e-16 0)
(88.0404 -1.10089e-16 0)
(88.2802 -1.09626e-16 0)
(88.5191 -1.09166e-16 0)
(88.7571 -1.0871e-16 0)
(88.994 -1.08258e-16 0)
(89.2301 -1.0781e-16 0)
(89.4652 -1.07365e-16 0)
(89.6993 -1.06925e-16 0)
(89.9325 -1.06487e-16 0)
(90.1648 -1.06053e-16 0)
(90.3961 -1.05623e-16 0)
(90.6264 -1.05196e-16 0)
(90.8558 -1.04772e-16 0)
(91.0843 -1.04351e-16 0)
(91.3118 -1.03933e-16 0)
(91.5383 -1.03518e-16 0)
(91.764 -1.03106e-16 0)
(91.9886 -1.02696e-16 0)
(92.2123 -1.02289e-16 0)
(92.4351 -1.01884e-16 0)
(92.6569 -1.01482e-16 0)
(92.8778 -1.01083e-16 0)
(93.0977 -1.00685e-16 0)
(93.3167 -1.0029e-16 0)
(93.5347 -9.98966e-17 0)
(93.7518 -9.95057e-17 0)
(93.9679 -9.91168e-17 0)
(94.1831 -9.87299e-17 0)
(94.3973 -9.83451e-17 0)
(94.6106 -9.79623e-17 0)
(94.823 -9.75814e-17 0)
(95.0344 -9.72024e-17 0)
(95.2448 -9.68254e-17 0)
(95.4543 -9.64502e-17 0)
(95.6628 -9.60768e-17 0)
(95.8704 -9.57053e-17 0)
(96.0771 -9.53356e-17 0)
(96.2828 -9.49677e-17 0)
(96.4875 -9.46016e-17 0)
(96.6913 -9.42372e-17 0)
(96.8942 -9.38746e-17 0)
(97.0961 -9.35137e-17 0)
(97.2971 -9.31545e-17 0)
(97.4971 -9.2797e-17 0)
(97.6962 -9.24411e-17 0)
(97.8943 -9.20869e-17 0)
(98.0914 -9.17343e-17 0)
(98.2877 -9.13833e-17 0)
(98.4829 -9.10339e-17 0)
(98.6773 -9.06861e-17 0)
(98.8706 -9.03398e-17 0)
(99.0631 -8.9995e-17 0)
(99.2545 -8.96518e-17 0)
(99.4451 -8.931e-17 0)
(99.6347 -8.89698e-17 0)
(99.8233 -8.8631e-17 0)
(100.011 -8.82936e-17 0)
(100.198 -8.79576e-17 0)
(100.384 -8.7623e-17 0)
(100.568 -8.72898e-17 0)
(100.752 -8.6958e-17 0)
(100.935 -8.66275e-17 0)
(101.117 -8.62983e-17 0)
(101.298 -8.59705e-17 0)
(101.478 -8.56439e-17 0)
(101.658 -8.53186e-17 0)
(101.836 -8.49946e-17 0)
(102.013 -8.46719e-17 0)
(102.189 -8.43503e-17 0)
(102.365 -8.403e-17 0)
(102.539 -8.37109e-17 0)
(102.713 -8.3393e-17 0)
(102.885 -8.30763e-17 0)
(103.057 -8.27608e-17 0)
(103.227 -8.24464e-17 0)
(103.397 -8.21332e-17 0)
(103.566 -8.18211e-17 0)
(103.733 -8.15102e-17 0)
(103.9 -8.12004e-17 0)
(104.066 -8.08917e-17 0)
(104.231 -8.05841e-17 0)
(104.395 -8.02777e-17 0)
(104.558 -7.99723e-17 0)
(104.72 -7.96681e-17 0)
(104.881 -7.9365e-17 0)
(105.042 -7.90629e-17 0)
(105.201 -7.87619e-17 0)
(105.359 -7.84621e-17 0)
(105.516 -7.81633e-17 0)
(105.673 -7.78656e-17 0)
(105.828 -7.75689e-17 0)
(105.983 -7.72734e-17 0)
(106.136 -7.69789e-17 0)
(106.289 -7.66855e-17 0)
(106.441 -7.63931e-17 0)
(106.591 -7.61019e-17 0)
(106.741 -7.58117e-17 0)
(106.89 -7.55226e-17 0)
(107.038 -7.52345e-17 0)
(107.185 -7.49475e-17 0)
(107.331 -7.46616e-17 0)
(107.476 -7.43768e-17 0)
(107.62 -7.4093e-17 0)
(107.763 -7.38103e-17 0)
(107.905 -7.35287e-17 0)
(108.046 -7.32482e-17 0)
(108.187 -7.29687e-17 0)
(108.326 -7.26904e-17 0)
(108.464 -7.2413e-17 0)
(108.602 -7.21368e-17 0)
(108.738 -7.18617e-17 0)
(108.874 -7.15876e-17 0)
(109.009 -7.13146e-17 0)
(109.142 -7.10427e-17 0)
(109.275 -7.07718e-17 0)
(109.407 -7.05021e-17 0)
(109.537 -7.02334e-17 0)
(109.667 -6.99658e-17 0)
(109.796 -6.96993e-17 0)
(109.924 -6.94339e-17 0)
(110.051 -6.91695e-17 0)
(110.177 -6.89063e-17 0)
(110.302 -6.86441e-17 0)
(110.427 -6.8383e-17 0)
(110.55 -6.81229e-17 0)
(110.672 -6.7864e-17 0)
(110.793 -6.76061e-17 0)
(110.914 -6.73493e-17 0)
(111.033 -6.70936e-17 0)
(111.152 -6.68389e-17 0)
(111.269 -6.65854e-17 0)
(111.386 -6.63329e-17 0)
(111.501 -6.60814e-17 0)
(111.616 -6.58311e-17 0)
(111.73 -6.55817e-17 0)
(111.843 -6.53335e-17 0)
(111.955 -6.50863e-17 0)
(112.065 -6.48402e-17 0)
(112.175 -6.45951e-17 0)
(112.284 -6.43511e-17 0)
(112.392 -6.41081e-17 0)
(112.5 -6.38661e-17 0)
(112.606 -6.36252e-17 0)
(112.711 -6.33854e-17 0)
(112.815 -6.31466e-17 0)
(112.919 -6.29088e-17 0)
(113.021 -6.2672e-17 0)
(113.122 -6.24362e-17 0)
(113.223 -6.22015e-17 0)
(113.322 -6.19678e-17 0)
(113.421 -6.17351e-17 0)
(113.519 -6.15034e-17 0)
(113.615 -6.12726e-17 0)
(113.711 -6.10429e-17 0)
(113.806 -6.08142e-17 0)
(113.9 -6.05865e-17 0)
(113.993 -6.03597e-17 0)
(114.084 -6.01339e-17 0)
(114.175 -5.99091e-17 0)
(114.265 -5.96852e-17 0)
(114.355 -5.94623e-17 0)
(114.443 -5.92404e-17 0)
(114.53 -5.90194e-17 0)
(114.616 -5.87993e-17 0)
(114.702 -5.85802e-17 0)
(114.786 -5.8362e-17 0)
(114.869 -5.81447e-17 0)
(114.952 -5.79283e-17 0)
(115.033 -5.77129e-17 0)
(115.114 -5.74983e-17 0)
(115.193 -5.72847e-17 0)
(115.272 -5.70719e-17 0)
(115.35 -5.686e-17 0)
(115.427 -5.66491e-17 0)
(115.502 -5.64389e-17 0)
(115.577 -5.62297e-17 0)
(115.651 -5.60213e-17 0)
(115.724 -5.58138e-17 0)
(115.796 -5.56071e-17 0)
(115.867 -5.54012e-17 0)
(115.938 -5.51962e-17 0)
(116.007 -5.4992e-17 0)
(116.075 -5.47887e-17 0)
(116.142 -5.45861e-17 0)
(116.209 -5.43844e-17 0)
(116.274 -5.41834e-17 0)
(116.338 -5.39833e-17 0)
(116.402 -5.3784e-17 0)
(116.465 -5.35854e-17 0)
(116.526 -5.33876e-17 0)
(116.587 -5.31906e-17 0)
(116.647 -5.29943e-17 0)
(116.705 -5.27988e-17 0)
(116.763 -5.26041e-17 0)
(116.82 -5.24101e-17 0)
(116.876 -5.22168e-17 0)
(116.931 -5.20243e-17 0)
(116.985 -5.18325e-17 0)
(117.038 -5.16414e-17 0)
(117.09 -5.14511e-17 0)
(117.141 -5.12614e-17 0)
(117.192 -5.10724e-17 0)
(117.241 -5.08842e-17 0)
(117.289 -5.06966e-17 0)
(117.337 -5.05097e-17 0)
(117.383 -5.03235e-17 0)
(117.429 -5.0138e-17 0)
(117.473 -4.99531e-17 0)
(117.517 -4.97689e-17 0)
(117.559 -4.95853e-17 0)
(117.601 -4.94024e-17 0)
(117.642 -4.92201e-17 0)
(117.682 -4.90385e-17 0)
(117.72 -4.88575e-17 0)
(117.758 -4.86771e-17 0)
(117.795 -4.84974e-17 0)
(117.831 -4.83182e-17 0)
(117.866 -4.81397e-17 0)
(117.901 -4.79618e-17 0)
(117.934 -4.77844e-17 0)
(117.966 -4.76077e-17 0)
(117.997 -4.74316e-17 0)
(118.028 -4.7256e-17 0)
(118.057 -4.7081e-17 0)
(118.085 -4.69066e-17 0)
(118.113 -4.67327e-17 0)
(118.139 -4.65595e-17 0)
(118.165 -4.63867e-17 0)
(118.19 -4.62146e-17 0)
(118.213 -4.60429e-17 0)
(118.236 -4.58718e-17 0)
(118.258 -4.57013e-17 0)
(118.279 -4.55313e-17 0)
(118.299 -4.53618e-17 0)
(118.318 -4.51929e-17 0)
(118.336 -4.50244e-17 0)
(118.353 -4.48565e-17 0)
(118.369 -4.46891e-17 0)
(118.384 -4.45222e-17 0)
(118.398 -4.43558e-17 0)
(118.411 -4.41899e-17 0)
(118.424 -4.40245e-17 0)
(118.435 -4.38595e-17 0)
(118.446 -4.36951e-17 0)
(118.455 -4.35312e-17 0)
(118.464 -4.33677e-17 0)
(118.471 -4.32047e-17 0)
(118.478 -4.30422e-17 0)
(118.483 -4.28801e-17 0)
(118.488 -4.27185e-17 0)
(118.492 -4.25574e-17 0)
(118.495 -4.23967e-17 0)
(118.497 -4.22365e-17 0)
(118.498 -4.20765e-17 0)
(118.498 -4.19169e-17 0)
(118.497 -4.17577e-17 0)
(118.495 -4.15987e-17 0)
(118.492 -4.14402e-17 0)
(118.488 -4.12821e-17 0)
(118.483 -4.11245e-17 0)
(118.478 -4.09672e-17 0)
(118.471 -4.08104e-17 0)
(118.464 -4.0654e-17 0)
(118.455 -4.0498e-17 0)
(118.446 -4.03424e-17 0)
(118.435 -4.01873e-17 0)
(118.424 -4.00325e-17 0)
(118.411 -3.98781e-17 0)
(118.398 -3.97242e-17 0)
(118.384 -3.95706e-17 0)
(118.369 -3.94174e-17 0)
(118.353 -3.92647e-17 0)
(118.336 -3.91123e-17 0)
(118.318 -3.89603e-17 0)
(118.299 -3.88087e-17 0)
(118.279 -3.86574e-17 0)
(118.258 -3.85066e-17 0)
(118.236 -3.83561e-17 0)
(118.213 -3.8206e-17 0)
(118.19 -3.80562e-17 0)
(118.165 -3.79069e-17 0)
(118.139 -3.77579e-17 0)
(118.113 -3.76092e-17 0)
(118.085 -3.74609e-17 0)
(118.057 -3.7313e-17 0)
(118.028 -3.71654e-17 0)
(117.997 -3.70182e-17 0)
(117.966 -3.68714e-17 0)
(117.934 -3.67249e-17 0)
(117.901 -3.65787e-17 0)
(117.866 -3.64329e-17 0)
(117.831 -3.62874e-17 0)
(117.795 -3.61423e-17 0)
(117.758 -3.59975e-17 0)
(117.72 -3.58531e-17 0)
(117.682 -3.5709e-17 0)
(117.642 -3.55652e-17 0)
(117.601 -3.54217e-17 0)
(117.559 -3.52786e-17 0)
(117.517 -3.51359e-17 0)
(117.473 -3.49934e-17 0)
(117.429 -3.48513e-17 0)
(117.383 -3.47095e-17 0)
(117.337 -3.4568e-17 0)
(117.289 -3.44268e-17 0)
(117.241 -3.4286e-17 0)
(117.192 -3.41455e-17 0)
(117.141 -3.40053e-17 0)
(117.09 -3.38654e-17 0)
(117.038 -3.37258e-17 0)
(116.985 -3.35866e-17 0)
(116.931 -3.34476e-17 0)
(116.876 -3.3309e-17 0)
(116.82 -3.31706e-17 0)
(116.763 -3.30326e-17 0)
(116.705 -3.28949e-17 0)
(116.647 -3.27575e-17 0)
(116.587 -3.26204e-17 0)
(116.526 -3.24836e-17 0)
(116.465 -3.2347e-17 0)
(116.402 -3.22108e-17 0)
(116.338 -3.20749e-17 0)
(116.274 -3.19393e-17 0)
(116.209 -3.1804e-17 0)
(116.142 -3.1669e-17 0)
(116.075 -3.15343e-17 0)
(116.007 -3.13998e-17 0)
(115.938 -3.12657e-17 0)
(115.867 -3.11319e-17 0)
(115.796 -3.09983e-17 0)
(115.724 -3.0865e-17 0)
(115.651 -3.07321e-17 0)
(115.577 -3.05994e-17 0)
(115.502 -3.0467e-17 0)
(115.427 -3.03349e-17 0)
(115.35 -3.02031e-17 0)
(115.272 -3.00715e-17 0)
(115.193 -2.99403e-17 0)
(115.114 -2.98093e-17 0)
(115.033 -2.96786e-17 0)
(114.952 -2.95482e-17 0)
(114.869 -2.94181e-17 0)
(114.786 -2.92882e-17 0)
(114.702 -2.91587e-17 0)
(114.616 -2.90294e-17 0)
(114.53 -2.89004e-17 0)
(114.443 -2.87717e-17 0)
(114.355 -2.86432e-17 0)
(114.265 -2.85151e-17 0)
(114.175 -2.83872e-17 0)
(114.084 -2.82595e-17 0)
(113.993 -2.81322e-17 0)
(113.9 -2.80051e-17 0)
(113.806 -2.78784e-17 0)
(113.711 -2.77519e-17 0)
(113.615 -2.76256e-17 0)
(113.519 -2.74997e-17 0)
(113.421 -2.7374e-17 0)
(113.322 -2.72485e-17 0)
(113.223 -2.71234e-17 0)
(113.122 -2.69985e-17 0)
(113.021 -2.68739e-17 0)
(112.919 -2.67496e-17 0)
(112.815 -2.66256e-17 0)
(112.711 -2.65018e-17 0)
(112.606 -2.63783e-17 0)
(112.5 -2.6255e-17 0)
(112.392 -2.61321e-17 0)
(112.284 -2.60094e-17 0)
(112.175 -2.58869e-17 0)
(112.065 -2.57648e-17 0)
(111.955 -2.56429e-17 0)
(111.843 -2.55213e-17 0)
(111.73 -2.53999e-17 0)
(111.616 -2.52789e-17 0)
(111.501 -2.5158e-17 0)
(111.386 -2.50375e-17 0)
(111.269 -2.49172e-17 0)
(111.152 -2.47972e-17 0)
(111.033 -2.46775e-17 0)
(110.914 -2.4558e-17 0)
(110.793 -2.44389e-17 0)
(110.672 -2.43199e-17 0)
(110.55 -2.42013e-17 0)
(110.427 -2.40829e-17 0)
(110.302 -2.39648e-17 0)
(110.177 -2.38469e-17 0)
(110.051 -2.37293e-17 0)
(109.924 -2.3612e-17 0)
(109.796 -2.3495e-17 0)
(109.667 -2.33782e-17 0)
(109.537 -2.32617e-17 0)
(109.407 -2.31455e-17 0)
(109.275 -2.30295e-17 0)
(109.142 -2.29138e-17 0)
(109.009 -2.27984e-17 0)
(108.874 -2.26832e-17 0)
(108.738 -2.25683e-17 0)
(108.602 -2.24537e-17 0)
(108.464 -2.23394e-17 0)
(108.326 -2.22253e-17 0)
(108.187 -2.21115e-17 0)
(108.046 -2.19979e-17 0)
(107.905 -2.18847e-17 0)
(107.763 -2.17717e-17 0)
(107.62 -2.16589e-17 0)
(107.476 -2.15465e-17 0)
(107.331 -2.14343e-17 0)
(107.185 -2.13224e-17 0)
(107.038 -2.12107e-17 0)
(106.89 -2.10993e-17 0)
(106.741 -2.09882e-17 0)
(106.591 -2.08774e-17 0)
(106.441 -2.07668e-17 0)
(106.289 -2.06565e-17 0)
(106.136 -2.05465e-17 0)
(105.983 -2.04367e-17 0)
(105.828 -2.03273e-17 0)
(105.673 -2.02181e-17 0)
(105.516 -2.01091e-17 0)
(105.359 -2.00005e-17 0)
(105.201 -1.98921e-17 0)
(105.042 -1.9784e-17 0)
(104.881 -1.96761e-17 0)
(104.72 -1.95686e-17 0)
(104.558 -1.94613e-17 0)
(104.395 -1.93542e-17 0)
(104.231 -1.92475e-17 0)
(104.066 -1.9141e-17 0)
(103.9 -1.90348e-17 0)
(103.733 -1.89289e-17 0)
(103.566 -1.88233e-17 0)
(103.397 -1.87179e-17 0)
(103.227 -1.86128e-17 0)
(103.057 -1.8508e-17 0)
(102.885 -1.84034e-17 0)
(102.713 -1.82992e-17 0)
(102.539 -1.81952e-17 0)
(102.365 -1.80915e-17 0)
(102.189 -1.7988e-17 0)
(102.013 -1.78849e-17 0)
(101.836 -1.7782e-17 0)
(101.658 -1.76794e-17 0)
(101.478 -1.75771e-17 0)
(101.298 -1.7475e-17 0)
(101.117 -1.73732e-17 0)
(100.935 -1.72718e-17 0)
(100.752 -1.71705e-17 0)
(100.568 -1.70696e-17 0)
(100.384 -1.6969e-17 0)
(100.198 -1.68686e-17 0)
(100.011 -1.67685e-17 0)
(99.8233 -1.66687e-17 0)
(99.6347 -1.65692e-17 0)
(99.4451 -1.64699e-17 0)
(99.2545 -1.6371e-17 0)
(99.0631 -1.62723e-17 0)
(98.8706 -1.61739e-17 0)
(98.6773 -1.60758e-17 0)
(98.4829 -1.59779e-17 0)
(98.2877 -1.58804e-17 0)
(98.0914 -1.57831e-17 0)
(97.8943 -1.56861e-17 0)
(97.6962 -1.55894e-17 0)
(97.4971 -1.5493e-17 0)
(97.2971 -1.53969e-17 0)
(97.0961 -1.5301e-17 0)
(96.8942 -1.52055e-17 0)
(96.6913 -1.51102e-17 0)
(96.4875 -1.50152e-17 0)
(96.2828 -1.49205e-17 0)
(96.0771 -1.4826e-17 0)
(95.8704 -1.47319e-17 0)
(95.6628 -1.46381e-17 0)
(95.4543 -1.45445e-17 0)
(95.2448 -1.44512e-17 0)
(95.0344 -1.43582e-17 0)
(94.823 -1.42655e-17 0)
(94.6106 -1.41731e-17 0)
(94.3973 -1.4081e-17 0)
(94.1831 -1.39892e-17 0)
(93.9679 -1.38976e-17 0)
(93.7518 -1.38063e-17 0)
(93.5347 -1.37154e-17 0)
(93.3167 -1.36247e-17 0)
(93.0977 -1.35343e-17 0)
(92.8778 -1.34442e-17 0)
(92.6569 -1.33544e-17 0)
(92.4351 -1.32649e-17 0)
(92.2123 -1.31756e-17 0)
(91.9886 -1.30867e-17 0)
(91.764 -1.2998e-17 0)
(91.5383 -1.29097e-17 0)
(91.3118 -1.28216e-17 0)
(91.0843 -1.27338e-17 0)
(90.8558 -1.26464e-17 0)
(90.6264 -1.25592e-17 0)
(90.3961 -1.24723e-17 0)
(90.1648 -1.23857e-17 0)
(89.9325 -1.22993e-17 0)
(89.6993 -1.22133e-17 0)
(89.4652 -1.21276e-17 0)
(89.2301 -1.20422e-17 0)
(88.994 -1.1957e-17 0)
(88.7571 -1.18722e-17 0)
(88.5191 -1.17876e-17 0)
(88.2802 -1.17034e-17 0)
(88.0404 -1.16194e-17 0)
(87.7996 -1.15358e-17 0)
(87.5579 -1.14524e-17 0)
(87.3152 -1.13693e-17 0)
(87.0716 -1.12865e-17 0)
(86.827 -1.12041e-17 0)
(86.5815 -1.11219e-17 0)
(86.335 -1.104e-17 0)
(86.0876 -1.09584e-17 0)
(85.8392 -1.08771e-17 0)
(85.5899 -1.07961e-17 0)
(85.3397 -1.07154e-17 0)
(85.0885 -1.0635e-17 0)
(84.8363 -1.05549e-17 0)
(84.5832 -1.04751e-17 0)
(84.3291 -1.03956e-17 0)
(84.0741 -1.03163e-17 0)
(83.8182 -1.02374e-17 0)
(83.5613 -1.01588e-17 0)
(83.3034 -1.00805e-17 0)
(83.0446 -1.00025e-17 0)
(82.7849 -9.92474e-18 0)
(82.5242 -9.84732e-18 0)
(82.2626 -9.7702e-18 0)
(82 -9.69337e-18 0)
(81.7365 -9.61685e-18 0)
(81.472 -9.54063e-18 0)
(81.2065 -9.4647e-18 0)
(80.9402 -9.38908e-18 0)
(80.6728 -9.31375e-18 0)
(80.4046 -9.23873e-18 0)
(80.1353 -9.16401e-18 0)
(79.8652 -9.08958e-18 0)
(79.594 -9.01546e-18 0)
(79.322 -8.94164e-18 0)
(79.049 -8.86812e-18 0)
(78.775 -8.7949e-18 0)
(78.5001 -8.72199e-18 0)
(78.2242 -8.64937e-18 0)
(77.9474 -8.57706e-18 0)
(77.6697 -8.50505e-18 0)
(77.3909 -8.43334e-18 0)
(77.1113 -8.36193e-18 0)
(76.8307 -8.29082e-18 0)
(76.5491 -8.22002e-18 0)
(76.2666 -8.14952e-18 0)
(75.9832 -8.07932e-18 0)
(75.6988 -8.00942e-18 0)
(75.4135 -7.93983e-18 0)
(75.1272 -7.87054e-18 0)
(74.8399 -7.80155e-18 0)
(74.5517 -7.73287e-18 0)
(74.2626 -7.66448e-18 0)
(73.9725 -7.59641e-18 0)
(73.6815 -7.52863e-18 0)
(73.3895 -7.46116e-18 0)
(73.0966 -7.39399e-18 0)
(72.8027 -7.32713e-18 0)
(72.5079 -7.26056e-18 0)
(72.2121 -7.19431e-18 0)
(71.9154 -7.12835e-18 0)
(71.6177 -7.0627e-18 0)
(71.3191 -6.99736e-18 0)
(71.0196 -6.93232e-18 0)
(70.719 -6.86758e-18 0)
(70.4176 -6.80315e-18 0)
(70.1152 -6.73902e-18 0)
(69.8118 -6.67519e-18 0)
(69.5075 -6.61167e-18 0)
(69.2023 -6.54846e-18 0)
(68.8961 -6.48554e-18 0)
(68.5889 -6.42294e-18 0)
(68.2808 -6.36063e-18 0)
(67.9718 -6.29864e-18 0)
(67.6618 -6.23694e-18 0)
(67.3508 -6.17555e-18 0)
(67.039 -6.11447e-18 0)
(66.7261 -6.05369e-18 0)
(66.4123 -5.99321e-18 0)
(66.0976 -5.93304e-18 0)
(65.7819 -5.87318e-18 0)
(65.4653 -5.81362e-18 0)
(65.1477 -5.75436e-18 0)
(64.8292 -5.69541e-18 0)
(64.5097 -5.63677e-18 0)
(64.1893 -5.57843e-18 0)
(63.8679 -5.52039e-18 0)
(63.5456 -5.46266e-18 0)
(63.2223 -5.40523e-18 0)
(62.8981 -5.34811e-18 0)
(62.5729 -5.29129e-18 0)
(62.2468 -5.23478e-18 0)
(61.9198 -5.17858e-18 0)
(61.5918 -5.12268e-18 0)
(61.2628 -5.06708e-18 0)
(60.9329 -5.01179e-18 0)
(60.6021 -4.9568e-18 0)
(60.2703 -4.90212e-18 0)
(59.9375 -4.84774e-18 0)
(59.6038 -4.79367e-18 0)
(59.2692 -4.7399e-18 0)
(58.9336 -4.68644e-18 0)
(58.597 -4.63328e-18 0)
(58.2595 -4.58042e-18 0)
(57.9211 -4.52787e-18 0)
(57.5817 -4.47563e-18 0)
(57.2414 -4.42369e-18 0)
(56.9001 -4.37205e-18 0)
(56.5579 -4.32072e-18 0)
(56.2147 -4.2697e-18 0)
(55.8706 -4.21897e-18 0)
(55.5255 -4.16856e-18 0)
(55.1795 -4.11844e-18 0)
(54.8325 -4.06863e-18 0)
(54.4846 -4.01913e-18 0)
(54.1357 -3.96992e-18 0)
(53.7859 -3.92103e-18 0)
(53.4351 -3.87243e-18 0)
(53.0834 -3.82414e-18 0)
(52.7308 -3.77616e-18 0)
(52.3772 -3.72847e-18 0)
(52.0226 -3.68109e-18 0)
(51.6671 -3.63402e-18 0)
(51.3107 -3.58725e-18 0)
(50.9533 -3.54078e-18 0)
(50.5949 -3.49461e-18 0)
(50.2356 -3.44875e-18 0)
(49.8754 -3.40319e-18 0)
(49.5142 -3.35794e-18 0)
(49.152 -3.31298e-18 0)
(48.789 -3.26833e-18 0)
(48.4249 -3.22399e-18 0)
(48.0599 -3.17994e-18 0)
(47.694 -3.1362e-18 0)
(47.3271 -3.09276e-18 0)
(46.9593 -3.04963e-18 0)
(46.5905 -3.00679e-18 0)
(46.2208 -2.96426e-18 0)
(45.8501 -2.92203e-18 0)
(45.4785 -2.8801e-18 0)
(45.1059 -2.83848e-18 0)
(44.7324 -2.79716e-18 0)
(44.3579 -2.75614e-18 0)
(43.9825 -2.71542e-18 0)
(43.6062 -2.675e-18 0)
(43.2289 -2.63489e-18 0)
(42.8506 -2.59507e-18 0)
(42.4714 -2.55556e-18 0)
(42.0912 -2.51635e-18 0)
(41.7101 -2.47745e-18 0)
(41.3281 -2.43884e-18 0)
(40.9451 -2.40053e-18 0)
(40.5612 -2.36253e-18 0)
(40.1763 -2.32483e-18 0)
(39.7904 -2.28743e-18 0)
(39.4036 -2.25033e-18 0)
(39.0159 -2.21353e-18 0)
(38.6272 -2.17703e-18 0)
(38.2376 -2.14084e-18 0)
(37.847 -2.10494e-18 0)
(37.4554 -2.06935e-18 0)
(37.063 -2.03406e-18 0)
(36.6695 -1.99906e-18 0)
(36.2752 -1.96437e-18 0)
(35.8798 -1.92998e-18 0)
(35.4836 -1.89589e-18 0)
(35.0864 -1.8621e-18 0)
(34.6882 -1.82861e-18 0)
(34.2891 -1.79542e-18 0)
(33.889 -1.76253e-18 0)
(33.488 -1.72994e-18 0)
(33.086 -1.69765e-18 0)
(32.6831 -1.66566e-18 0)
(32.2793 -1.63397e-18 0)
(31.8745 -1.60258e-18 0)
(31.4687 -1.57148e-18 0)
(31.062 -1.54068e-18 0)
(30.6544 -1.51018e-18 0)
(30.2458 -1.47998e-18 0)
(29.8362 -1.45008e-18 0)
(29.4257 -1.42047e-18 0)
(29.0143 -1.39115e-18 0)
(28.6019 -1.36213e-18 0)
(28.1886 -1.3334e-18 0)
(27.7743 -1.30497e-18 0)
(27.359 -1.27683e-18 0)
(26.9429 -1.24898e-18 0)
(26.5257 -1.22142e-18 0)
(26.1076 -1.19416e-18 0)
(25.6886 -1.16717e-18 0)
(25.2686 -1.14048e-18 0)
(24.8477 -1.11407e-18 0)
(24.4259 -1.08795e-18 0)
(24.003 -1.06211e-18 0)
(23.5793 -1.03655e-18 0)
(23.1546 -1.01127e-18 0)
(22.7289 -9.86265e-19 0)
(22.3023 -9.61538e-19 0)
(21.8747 -9.37084e-19 0)
(21.4462 -9.12901e-19 0)
(21.0168 -8.88987e-19 0)
(20.5864 -8.6534e-19 0)
(20.155 -8.41956e-19 0)
(19.7227 -8.18834e-19 0)
(19.2895 -7.95969e-19 0)
(18.8553 -7.7336e-19 0)
(18.4201 -7.51003e-19 0)
(17.984 -7.28894e-19 0)
(17.547 -7.07031e-19 0)
(17.109 -6.85409e-19 0)
(16.6701 -6.64025e-19 0)
(16.2302 -6.42875e-19 0)
(15.7894 -6.21955e-19 0)
(15.3476 -6.0126e-19 0)
(14.9049 -5.80786e-19 0)
(14.4612 -5.60529e-19 0)
(14.0166 -5.40483e-19 0)
(13.571 -5.20645e-19 0)
(13.1245 -5.01008e-19 0)
(12.677 -4.81568e-19 0)
(12.2286 -4.62319e-19 0)
(11.7792 -4.43256e-19 0)
(11.3289 -4.24373e-19 0)
(10.8776 -4.05664e-19 0)
(10.4254 -3.87124e-19 0)
(9.97228 -3.68746e-19 0)
(9.51818 -3.50524e-19 0)
(9.06313 -3.32452e-19 0)
(8.60713 -3.14523e-19 0)
(8.15018 -2.96731e-19 0)
(7.69228 -2.79068e-19 0)
(7.23344 -2.61529e-19 0)
(6.77364 -2.44106e-19 0)
(6.3129 -2.26791e-19 0)
(5.85122 -2.09579e-19 0)
(5.38858 -1.92461e-19 0)
(4.92499 -1.75431e-19 0)
(4.46046 -1.58481e-19 0)
(3.99498 -1.41603e-19 0)
(3.52855 -1.2479e-19 0)
(3.06118 -1.08035e-19 0)
(2.59285 -9.13293e-20 0)
(2.12358 -7.46662e-20 0)
(1.65336 -5.80376e-20 0)
(1.18219 -4.14359e-20 0)
(0.710071 -2.48535e-20 0)
(0.237006 -8.28258e-21 0)
)
;

boundaryField
{
    top_wall
    {
        type            noSlip;
    }
    inlet
    {
        type            cyclic;
    }
    bot_wall
    {
        type            noSlip;
    }
    outlet
    {
        type            cyclic;
    }
    frontAndBack
    {
        type            empty;
    }
}


// ************************************************************************* //
