# Wall shear stress
# Time          	patch           	min             	max             
0.5             	top_wall	(-8.17845346e-02 -6.19430405e-28 0.00000000e+00)	(-8.17845346e-02 -6.19430405e-28 0.00000000e+00)
0.5             	bot_wall	(-8.17850066e-02 -7.18769557e-19 0.00000000e+00)	(-8.17850066e-02 -7.18769557e-19 0.00000000e+00)
1               	top_wall	(-8.35823862e-02 -1.30607289e-28 0.00000000e+00)	(-8.35823862e-02 -1.30607289e-28 0.00000000e+00)
1               	bot_wall	(-8.35818711e-02 7.85727809e-19 0.00000000e+00)	(-8.35818711e-02 7.85727809e-19 0.00000000e+00)
1.5             	top_wall	(-8.39280850e-02 -1.70787866e-28 0.00000000e+00)	(-8.39280850e-02 -1.70787866e-28 0.00000000e+00)
1.5             	bot_wall	(-8.39275948e-02 6.73814698e-19 0.00000000e+00)	(-8.39275948e-02 6.73814698e-19 0.00000000e+00)
2               	top_wall	(-8.39276628e-02 -5.70752815e-28 0.00000000e+00)	(-8.39276628e-02 -5.70752815e-28 0.00000000e+00)
2               	bot_wall	(-8.39272801e-02 6.49195138e-19 0.00000000e+00)	(-8.39272801e-02 6.49195138e-19 0.00000000e+00)
2.5             	top_wall	(-8.38417180e-02 -1.01935636e-27 0.00000000e+00)	(-8.38417180e-02 -1.01935636e-27 0.00000000e+00)
2.5             	bot_wall	(-8.38414165e-02 2.61189991e-18 0.00000000e+00)	(-8.38414165e-02 2.61189991e-18 0.00000000e+00)
3               	top_wall	(-8.37492570e-02 -1.66452549e-27 0.00000000e+00)	(-8.37492570e-02 -1.66452549e-27 0.00000000e+00)
3               	bot_wall	(-8.37490475e-02 6.02211189e-19 0.00000000e+00)	(-8.37490475e-02 6.02211189e-19 0.00000000e+00)
3.5             	top_wall	(-8.36773504e-02 -1.94489487e-27 0.00000000e+00)	(-8.36773504e-02 -1.94489487e-27 0.00000000e+00)
3.5             	bot_wall	(-8.36772267e-02 2.27033525e-18 0.00000000e+00)	(-8.36772267e-02 2.27033525e-18 0.00000000e+00)
4               	top_wall	(-8.36352850e-02 -1.85050297e-27 0.00000000e+00)	(-8.36352850e-02 -1.85050297e-27 0.00000000e+00)
4               	bot_wall	(-8.36352270e-02 -9.86101310e-19 0.00000000e+00)	(-8.36352270e-02 -9.86101310e-19 0.00000000e+00)
4.5             	top_wall	(-8.36256787e-02 -8.33070786e-28 0.00000000e+00)	(-8.36256787e-02 -8.33070786e-28 0.00000000e+00)
4.5             	bot_wall	(-8.36256665e-02 -7.52941098e-19 0.00000000e+00)	(-8.36256665e-02 -7.52941098e-19 0.00000000e+00)
5               	top_wall	(-8.36485793e-02 6.04535962e-27 0.00000000e+00)	(-8.36485793e-02 6.04535962e-27 0.00000000e+00)
5               	bot_wall	(-8.36485987e-02 3.64797581e-19 0.00000000e+00)	(-8.36485987e-02 3.64797581e-19 0.00000000e+00)
5.5             	top_wall	(-8.37031175e-02 2.99885511e-26 0.00000000e+00)	(-8.37031175e-02 2.99885511e-26 0.00000000e+00)
5.5             	bot_wall	(-8.37031589e-02 -1.41999112e-18 0.00000000e+00)	(-8.37031589e-02 -1.41999112e-18 0.00000000e+00)
6               	top_wall	(-8.37882103e-02 1.03615935e-25 0.00000000e+00)	(-8.37882103e-02 1.03615935e-25 0.00000000e+00)
6               	bot_wall	(-8.37882678e-02 1.86862858e-20 0.00000000e+00)	(-8.37882678e-02 1.86862858e-20 0.00000000e+00)
6.5             	top_wall	(-8.39029067e-02 2.96252962e-25 0.00000000e+00)	(-8.39029067e-02 2.96252962e-25 0.00000000e+00)
6.5             	bot_wall	(-8.39029765e-02 -3.81088483e-19 0.00000000e+00)	(-8.39029765e-02 -3.81088483e-19 0.00000000e+00)
7               	top_wall	(-8.40467132e-02 7.15993520e-25 0.00000000e+00)	(-8.40467132e-02 7.15993520e-25 0.00000000e+00)
7               	bot_wall	(-8.40467925e-02 -8.19335623e-19 0.00000000e+00)	(-8.40467925e-02 -8.19335623e-19 0.00000000e+00)
7.5             	top_wall	(-8.42201664e-02 1.51898239e-24 0.00000000e+00)	(-8.42201664e-02 1.51898239e-24 0.00000000e+00)
7.5             	bot_wall	(-8.42202532e-02 -1.62862470e-18 0.00000000e+00)	(-8.42202532e-02 -1.62862470e-18 0.00000000e+00)
8               	top_wall	(-8.44258266e-02 2.89944233e-24 0.00000000e+00)	(-8.44258266e-02 2.89944233e-24 0.00000000e+00)
8               	bot_wall	(-8.44259193e-02 -1.50243593e-19 0.00000000e+00)	(-8.44259193e-02 -1.50243593e-19 0.00000000e+00)
8.5             	top_wall	(-8.46691452e-02 5.08782564e-24 0.00000000e+00)	(-8.46691452e-02 5.08782564e-24 0.00000000e+00)
8.5             	bot_wall	(-8.46692422e-02 4.60949824e-19 0.00000000e+00)	(-8.46692422e-02 4.60949824e-19 0.00000000e+00)
9               	top_wall	(-8.49570823e-02 8.31901837e-24 0.00000000e+00)	(-8.49570823e-02 8.31901837e-24 0.00000000e+00)
9               	bot_wall	(-8.49571824e-02 1.14010614e-18 0.00000000e+00)	(-8.49571824e-02 1.14010614e-18 0.00000000e+00)
9.5             	top_wall	(-8.52925751e-02 1.28181912e-23 0.00000000e+00)	(-8.52925751e-02 1.28181912e-23 0.00000000e+00)
9.5             	bot_wall	(-8.52926767e-02 9.93033809e-19 0.00000000e+00)	(-8.52926767e-02 9.93033809e-19 0.00000000e+00)
10              	top_wall	(-8.56690675e-02 1.87865915e-23 0.00000000e+00)	(-8.56690675e-02 1.87865915e-23 0.00000000e+00)
10              	bot_wall	(-8.56691695e-02 1.69269831e-18 0.00000000e+00)	(-8.56691695e-02 1.69269831e-18 0.00000000e+00)
10.5            	top_wall	(-8.60732420e-02 2.63912178e-23 0.00000000e+00)	(-8.60732420e-02 2.63912178e-23 0.00000000e+00)
10.5            	bot_wall	(-8.60733430e-02 2.34016026e-19 0.00000000e+00)	(-8.60733430e-02 2.34016026e-19 0.00000000e+00)
11              	top_wall	(-8.64929661e-02 3.57784466e-23 0.00000000e+00)	(-8.64929661e-02 3.57784466e-23 0.00000000e+00)
11              	bot_wall	(-8.64930649e-02 -3.58201699e-19 0.00000000e+00)	(-8.64930649e-02 -3.58201699e-19 0.00000000e+00)
11.5            	top_wall	(-8.69208599e-02 4.70696745e-23 0.00000000e+00)	(-8.69208599e-02 4.70696745e-23 0.00000000e+00)
11.5            	bot_wall	(-8.69209555e-02 -5.48655759e-19 0.00000000e+00)	(-8.69209555e-02 -5.48655759e-19 0.00000000e+00)
12              	top_wall	(-8.73533152e-02 6.03884827e-23 0.00000000e+00)	(-8.73533152e-02 6.03884827e-23 0.00000000e+00)
12              	bot_wall	(-8.73534066e-02 2.55388532e-19 0.00000000e+00)	(-8.73534066e-02 2.55388532e-19 0.00000000e+00)
12.5            	top_wall	(-8.77887043e-02 7.58686972e-23 0.00000000e+00)	(-8.77887043e-02 7.58686972e-23 0.00000000e+00)
12.5            	bot_wall	(-8.77887909e-02 1.37325035e-18 0.00000000e+00)	(-8.77887909e-02 1.37325035e-18 0.00000000e+00)
13              	top_wall	(-8.82262760e-02 9.36829210e-23 0.00000000e+00)	(-8.82262760e-02 9.36829210e-23 0.00000000e+00)
13              	bot_wall	(-8.82263572e-02 1.54931488e-18 0.00000000e+00)	(-8.82263572e-02 1.54931488e-18 0.00000000e+00)
13.5            	top_wall	(-8.86655007e-02 1.14059605e-22 0.00000000e+00)	(-8.86655007e-02 1.14059605e-22 0.00000000e+00)
13.5            	bot_wall	(-8.86655762e-02 -6.02583009e-19 0.00000000e+00)	(-8.86655762e-02 -6.02583009e-19 0.00000000e+00)
14              	top_wall	(-8.91057943e-02 1.37325664e-22 0.00000000e+00)	(-8.91057943e-02 1.37325664e-22 0.00000000e+00)
14              	bot_wall	(-8.91058639e-02 -5.67084472e-19 0.00000000e+00)	(-8.91058639e-02 -5.67084472e-19 0.00000000e+00)
14.5            	top_wall	(-8.95463309e-02 1.63921633e-22 0.00000000e+00)	(-8.95463309e-02 1.63921633e-22 0.00000000e+00)
14.5            	bot_wall	(-8.95463948e-02 1.05881747e-18 0.00000000e+00)	(-8.95463948e-02 1.05881747e-18 0.00000000e+00)
15              	top_wall	(-8.99860223e-02 1.94400669e-22 0.00000000e+00)	(-8.99860223e-02 1.94400669e-22 0.00000000e+00)
15              	bot_wall	(-8.99860805e-02 -1.54529679e-18 0.00000000e+00)	(-8.99860805e-02 -1.54529679e-18 0.00000000e+00)
15.5            	top_wall	(-9.04235210e-02 2.29428535e-22 0.00000000e+00)	(-9.04235210e-02 2.29428535e-22 0.00000000e+00)
15.5            	bot_wall	(-9.04235735e-02 -1.61727346e-18 0.00000000e+00)	(-9.04235735e-02 -1.61727346e-18 0.00000000e+00)
16              	top_wall	(-9.08572724e-02 2.69773472e-22 0.00000000e+00)	(-9.08572724e-02 2.69773472e-22 0.00000000e+00)
16              	bot_wall	(-9.08573195e-02 -5.01165620e-19 0.00000000e+00)	(-9.08573195e-02 -5.01165620e-19 0.00000000e+00)
16.5            	top_wall	(-9.12856025e-02 3.16268850e-22 0.00000000e+00)	(-9.12856025e-02 3.16268850e-22 0.00000000e+00)
16.5            	bot_wall	(-9.12856448e-02 -3.06082467e-19 0.00000000e+00)	(-9.12856448e-02 -3.06082467e-19 0.00000000e+00)
17              	top_wall	(-9.17067897e-02 3.69809917e-22 0.00000000e+00)	(-9.17067897e-02 3.69809917e-22 0.00000000e+00)
17              	bot_wall	(-9.17068270e-02 2.14487735e-18 0.00000000e+00)	(-9.17068270e-02 2.14487735e-18 0.00000000e+00)
17.5            	top_wall	(-9.21191544e-02 4.31262887e-22 0.00000000e+00)	(-9.21191544e-02 4.31262887e-22 0.00000000e+00)
17.5            	bot_wall	(-9.21191873e-02 3.48801654e-18 0.00000000e+00)	(-9.21191873e-02 3.48801654e-18 0.00000000e+00)
18              	top_wall	(-9.25211126e-02 5.01496705e-22 0.00000000e+00)	(-9.25211126e-02 5.01496705e-22 0.00000000e+00)
18              	bot_wall	(-9.25211415e-02 7.50157048e-19 0.00000000e+00)	(-9.25211415e-02 7.50157048e-19 0.00000000e+00)
18.5            	top_wall	(-9.29112359e-02 5.81311104e-22 0.00000000e+00)	(-9.29112359e-02 5.81311104e-22 0.00000000e+00)
18.5            	bot_wall	(-9.29112610e-02 1.19454224e-18 0.00000000e+00)	(-9.29112610e-02 1.19454224e-18 0.00000000e+00)
19              	top_wall	(-9.32882800e-02 6.71404011e-22 0.00000000e+00)	(-9.32882800e-02 6.71404011e-22 0.00000000e+00)
19              	bot_wall	(-9.32883016e-02 2.27259441e-18 0.00000000e+00)	(-9.32883016e-02 2.27259441e-18 0.00000000e+00)
19.5            	top_wall	(-9.36511935e-02 7.72393936e-22 0.00000000e+00)	(-9.36511935e-02 7.72393936e-22 0.00000000e+00)
19.5            	bot_wall	(-9.36512121e-02 1.03328601e-19 0.00000000e+00)	(-9.36512121e-02 1.03328601e-19 0.00000000e+00)
20              	top_wall	(-9.39991366e-02 8.84776719e-22 0.00000000e+00)	(-9.39991366e-02 8.84776719e-22 0.00000000e+00)
20              	bot_wall	(-9.39991523e-02 1.52398051e-18 0.00000000e+00)	(-9.39991523e-02 1.52398051e-18 0.00000000e+00)
20.5            	top_wall	(-9.43314779e-02 1.00894775e-21 0.00000000e+00)	(-9.43314779e-02 1.00894775e-21 0.00000000e+00)
20.5            	bot_wall	(-9.43314913e-02 3.05086691e-18 0.00000000e+00)	(-9.43314913e-02 3.05086691e-18 0.00000000e+00)
