# Wall shear stress
# Time          	patch           	min             	max             
0.5             	top_wall	(-4.32718229e-02 2.04083786e-27 0.00000000e+00)	(-4.32718229e-02 2.04083786e-27 0.00000000e+00)
0.5             	bot_wall	(-4.32720370e-02 9.55461238e-19 0.00000000e+00)	(-4.32720370e-02 9.55461238e-19 0.00000000e+00)
1               	top_wall	(-4.30181435e-02 3.17312221e-27 0.00000000e+00)	(-4.30181435e-02 3.17312221e-27 0.00000000e+00)
1               	bot_wall	(-4.30180618e-02 1.35006948e-18 0.00000000e+00)	(-4.30180618e-02 1.35006948e-18 0.00000000e+00)
1.5             	top_wall	(-4.27082736e-02 3.64750144e-27 0.00000000e+00)	(-4.27082736e-02 3.64750144e-27 0.00000000e+00)
1.5             	bot_wall	(-4.27081492e-02 1.19419651e-18 0.00000000e+00)	(-4.27081492e-02 1.19419651e-18 0.00000000e+00)
2               	top_wall	(-4.24158920e-02 3.96407129e-27 0.00000000e+00)	(-4.24158920e-02 3.96407129e-27 0.00000000e+00)
2               	bot_wall	(-4.24157870e-02 1.49414829e-18 0.00000000e+00)	(-4.24157870e-02 1.49414829e-18 0.00000000e+00)
2.5             	top_wall	(-4.21674897e-02 4.36231080e-27 0.00000000e+00)	(-4.21674897e-02 4.36231080e-27 0.00000000e+00)
2.5             	bot_wall	(-4.21674027e-02 1.55411037e-18 0.00000000e+00)	(-4.21674027e-02 1.55411037e-18 0.00000000e+00)
3               	top_wall	(-4.19640174e-02 5.39984994e-27 0.00000000e+00)	(-4.19640174e-02 5.39984994e-27 0.00000000e+00)
3               	bot_wall	(-4.19639453e-02 2.12396443e-18 0.00000000e+00)	(-4.19639453e-02 2.12396443e-18 0.00000000e+00)
3.5             	top_wall	(-4.18007014e-02 5.76328630e-27 0.00000000e+00)	(-4.18007014e-02 5.76328630e-27 0.00000000e+00)
3.5             	bot_wall	(-4.18006465e-02 1.35547591e-18 0.00000000e+00)	(-4.18006465e-02 1.35547591e-18 0.00000000e+00)
4               	top_wall	(-4.16721592e-02 5.53340030e-27 0.00000000e+00)	(-4.16721592e-02 5.53340030e-27 0.00000000e+00)
4               	bot_wall	(-4.16721223e-02 1.54176233e-18 0.00000000e+00)	(-4.16721223e-02 1.54176233e-18 0.00000000e+00)
4.5             	top_wall	(-4.15736333e-02 5.54430971e-27 0.00000000e+00)	(-4.15736333e-02 5.54430971e-27 0.00000000e+00)
4.5             	bot_wall	(-4.15736122e-02 1.02562523e-18 0.00000000e+00)	(-4.15736122e-02 1.02562523e-18 0.00000000e+00)
5               	top_wall	(-4.15011958e-02 3.78792455e-27 0.00000000e+00)	(-4.15011958e-02 3.78792455e-27 0.00000000e+00)
5               	bot_wall	(-4.15011874e-02 2.76107540e-19 0.00000000e+00)	(-4.15011874e-02 2.76107540e-19 0.00000000e+00)
5.5             	top_wall	(-4.14516750e-02 5.86634770e-27 0.00000000e+00)	(-4.14516750e-02 5.86634770e-27 0.00000000e+00)
5.5             	bot_wall	(-4.14516760e-02 9.09995736e-19 0.00000000e+00)	(-4.14516760e-02 9.09995736e-19 0.00000000e+00)
6               	top_wall	(-4.14225352e-02 2.82052035e-26 0.00000000e+00)	(-4.14225352e-02 2.82052035e-26 0.00000000e+00)
6               	bot_wall	(-4.14225432e-02 7.89493611e-19 0.00000000e+00)	(-4.14225432e-02 7.89493611e-19 0.00000000e+00)
6.5             	top_wall	(-4.14117561e-02 1.19914133e-25 0.00000000e+00)	(-4.14117561e-02 1.19914133e-25 0.00000000e+00)
6.5             	bot_wall	(-4.14117693e-02 2.36033200e-18 0.00000000e+00)	(-4.14117693e-02 2.36033200e-18 0.00000000e+00)
7               	top_wall	(-4.14177434e-02 3.74099177e-25 0.00000000e+00)	(-4.14177434e-02 3.74099177e-25 0.00000000e+00)
7               	bot_wall	(-4.14177605e-02 1.00593763e-18 0.00000000e+00)	(-4.14177605e-02 1.00593763e-18 0.00000000e+00)
7.5             	top_wall	(-4.14392599e-02 9.49047180e-25 0.00000000e+00)	(-4.14392599e-02 9.49047180e-25 0.00000000e+00)
7.5             	bot_wall	(-4.14392803e-02 1.31279284e-19 0.00000000e+00)	(-4.14392803e-02 1.31279284e-19 0.00000000e+00)
8               	top_wall	(-4.14753847e-02 2.08149566e-24 0.00000000e+00)	(-4.14753847e-02 2.08149566e-24 0.00000000e+00)
8               	bot_wall	(-4.14754076e-02 2.73094322e-19 0.00000000e+00)	(-4.14754076e-02 2.73094322e-19 0.00000000e+00)
8.5             	top_wall	(-4.15254948e-02 4.08349624e-24 0.00000000e+00)	(-4.15254948e-02 4.08349624e-24 0.00000000e+00)
8.5             	bot_wall	(-4.15255199e-02 9.91586096e-19 0.00000000e+00)	(-4.15255199e-02 9.91586096e-19 0.00000000e+00)
9               	top_wall	(-4.15892558e-02 7.33841576e-24 0.00000000e+00)	(-4.15892558e-02 7.33841576e-24 0.00000000e+00)
9               	bot_wall	(-4.15892827e-02 9.89963572e-19 0.00000000e+00)	(-4.15892827e-02 9.89963572e-19 0.00000000e+00)
9.5             	top_wall	(-4.16665936e-02 1.22764133e-23 0.00000000e+00)	(-4.16665936e-02 1.22764133e-23 0.00000000e+00)
9.5             	bot_wall	(-4.16666220e-02 1.29913447e-18 0.00000000e+00)	(-4.16666220e-02 1.29913447e-18 0.00000000e+00)
10              	top_wall	(-4.17576282e-02 1.93587983e-23 0.00000000e+00)	(-4.17576282e-02 1.93587983e-23 0.00000000e+00)
10              	bot_wall	(-4.17576579e-02 1.18383036e-18 0.00000000e+00)	(-4.17576579e-02 1.18383036e-18 0.00000000e+00)
10.5            	top_wall	(-4.18625344e-02 2.90444455e-23 0.00000000e+00)	(-4.18625344e-02 2.90444455e-23 0.00000000e+00)
10.5            	bot_wall	(-4.18625651e-02 1.37101486e-18 0.00000000e+00)	(-4.18625651e-02 1.37101486e-18 0.00000000e+00)
11              	top_wall	(-4.19813086e-02 4.17798709e-23 0.00000000e+00)	(-4.19813086e-02 4.17798709e-23 0.00000000e+00)
11              	bot_wall	(-4.19813400e-02 1.52103255e-18 0.00000000e+00)	(-4.19813400e-02 1.52103255e-18 0.00000000e+00)
11.5            	top_wall	(-4.21134827e-02 5.79846229e-23 0.00000000e+00)	(-4.21134827e-02 5.79846229e-23 0.00000000e+00)
11.5            	bot_wall	(-4.21135145e-02 1.49653841e-18 0.00000000e+00)	(-4.21135145e-02 1.49653841e-18 0.00000000e+00)
12              	top_wall	(-4.22579207e-02 7.80326614e-23 0.00000000e+00)	(-4.22579207e-02 7.80326614e-23 0.00000000e+00)
12              	bot_wall	(-4.22579527e-02 5.65235747e-19 0.00000000e+00)	(-4.22579527e-02 5.65235747e-19 0.00000000e+00)
12.5            	top_wall	(-4.24128626e-02 1.02285330e-22 0.00000000e+00)	(-4.24128626e-02 1.02285330e-22 0.00000000e+00)
12.5            	bot_wall	(-4.24128945e-02 1.12743551e-18 0.00000000e+00)	(-4.24128945e-02 1.12743551e-18 0.00000000e+00)
13              	top_wall	(-4.25762341e-02 1.31073635e-22 0.00000000e+00)	(-4.25762341e-02 1.31073635e-22 0.00000000e+00)
13              	bot_wall	(-4.25762657e-02 1.17021700e-18 0.00000000e+00)	(-4.25762657e-02 1.17021700e-18 0.00000000e+00)
13.5            	top_wall	(-4.27460373e-02 1.64726576e-22 0.00000000e+00)	(-4.27460373e-02 1.64726576e-22 0.00000000e+00)
13.5            	bot_wall	(-4.27460682e-02 1.85296764e-18 0.00000000e+00)	(-4.27460682e-02 1.85296764e-18 0.00000000e+00)
14              	top_wall	(-4.29205915e-02 2.03559735e-22 0.00000000e+00)	(-4.29205915e-02 2.03559735e-22 0.00000000e+00)
14              	bot_wall	(-4.29206217e-02 2.95734104e-18 0.00000000e+00)	(-4.29206217e-02 2.95734104e-18 0.00000000e+00)
14.5            	top_wall	(-4.30986041e-02 2.47896790e-22 0.00000000e+00)	(-4.30986041e-02 2.47896790e-22 0.00000000e+00)
14.5            	bot_wall	(-4.30986333e-02 2.80341777e-18 0.00000000e+00)	(-4.30986333e-02 2.80341777e-18 0.00000000e+00)
15              	top_wall	(-4.32791016e-02 2.98080334e-22 0.00000000e+00)	(-4.32791016e-02 2.98080334e-22 0.00000000e+00)
15              	bot_wall	(-4.32791296e-02 2.40024801e-18 0.00000000e+00)	(-4.32791296e-02 2.40024801e-18 0.00000000e+00)
15.5            	top_wall	(-4.34613360e-02 3.54486842e-22 0.00000000e+00)	(-4.34613360e-02 3.54486842e-22 0.00000000e+00)
15.5            	bot_wall	(-4.34613626e-02 2.78251781e-18 0.00000000e+00)	(-4.34613626e-02 2.78251781e-18 0.00000000e+00)
16              	top_wall	(-4.36446877e-02 4.17533139e-22 0.00000000e+00)	(-4.36446877e-02 4.17533139e-22 0.00000000e+00)
16              	bot_wall	(-4.36447131e-02 2.14672823e-18 0.00000000e+00)	(-4.36447131e-02 2.14672823e-18 0.00000000e+00)
16.5            	top_wall	(-4.38285966e-02 4.87681786e-22 0.00000000e+00)	(-4.38285966e-02 4.87681786e-22 0.00000000e+00)
16.5            	bot_wall	(-4.38286205e-02 1.53014145e-18 0.00000000e+00)	(-4.38286205e-02 1.53014145e-18 0.00000000e+00)
17              	top_wall	(-4.40125236e-02 5.65432931e-22 0.00000000e+00)	(-4.40125236e-02 5.65432931e-22 0.00000000e+00)
17              	bot_wall	(-4.40125461e-02 6.28449885e-19 0.00000000e+00)	(-4.40125461e-02 6.28449885e-19 0.00000000e+00)
17.5            	top_wall	(-4.41959186e-02 6.51313491e-22 0.00000000e+00)	(-4.41959186e-02 6.51313491e-22 0.00000000e+00)
17.5            	bot_wall	(-4.41959396e-02 1.23985363e-18 0.00000000e+00)	(-4.41959396e-02 1.23985363e-18 0.00000000e+00)
18              	top_wall	(-4.43782143e-02 7.45869996e-22 0.00000000e+00)	(-4.43782143e-02 7.45869996e-22 0.00000000e+00)
18              	bot_wall	(-4.43782340e-02 1.08245787e-18 0.00000000e+00)	(-4.43782340e-02 1.08245787e-18 0.00000000e+00)
18.5            	top_wall	(-4.45588305e-02 8.49642278e-22 0.00000000e+00)	(-4.45588305e-02 8.49642278e-22 0.00000000e+00)
18.5            	bot_wall	(-4.45588488e-02 8.71722682e-19 0.00000000e+00)	(-4.45588488e-02 8.71722682e-19 0.00000000e+00)
19              	top_wall	(-4.47371827e-02 9.63142886e-22 0.00000000e+00)	(-4.47371827e-02 9.63142886e-22 0.00000000e+00)
19              	bot_wall	(-4.47371997e-02 9.46140642e-19 0.00000000e+00)	(-4.47371997e-02 9.46140642e-19 0.00000000e+00)
19.5            	top_wall	(-4.49126964e-02 1.08685311e-21 0.00000000e+00)	(-4.49126964e-02 1.08685311e-21 0.00000000e+00)
19.5            	bot_wall	(-4.49127120e-02 -4.34557540e-19 0.00000000e+00)	(-4.49127120e-02 -4.34557540e-19 0.00000000e+00)
20              	top_wall	(-4.50848151e-02 1.22122409e-21 0.00000000e+00)	(-4.50848151e-02 1.22122409e-21 0.00000000e+00)
20              	bot_wall	(-4.50848295e-02 1.78602297e-18 0.00000000e+00)	(-4.50848295e-02 1.78602297e-18 0.00000000e+00)
20.5            	top_wall	(-4.52530172e-02 1.36668953e-21 0.00000000e+00)	(-4.52530172e-02 1.36668953e-21 0.00000000e+00)
20.5            	bot_wall	(-4.52530305e-02 1.90921106e-18 0.00000000e+00)	(-4.52530305e-02 1.90921106e-18 0.00000000e+00)
21              	top_wall	(-4.54168254e-02 1.52366136e-21 0.00000000e+00)	(-4.54168254e-02 1.52366136e-21 0.00000000e+00)
21              	bot_wall	(-4.54168375e-02 1.35118620e-18 0.00000000e+00)	(-4.54168375e-02 1.35118620e-18 0.00000000e+00)
21.5            	top_wall	(-4.55758121e-02 1.69255145e-21 0.00000000e+00)	(-4.55758121e-02 1.69255145e-21 0.00000000e+00)
21.5            	bot_wall	(-4.55758232e-02 1.34882556e-18 0.00000000e+00)	(-4.55758232e-02 1.34882556e-18 0.00000000e+00)
22              	top_wall	(-4.57296089e-02 1.87375419e-21 0.00000000e+00)	(-4.57296089e-02 1.87375419e-21 0.00000000e+00)
22              	bot_wall	(-4.57296190e-02 1.60049342e-18 0.00000000e+00)	(-4.57296190e-02 1.60049342e-18 0.00000000e+00)
22.5            	top_wall	(-4.58779066e-02 2.06767066e-21 0.00000000e+00)	(-4.58779066e-02 2.06767066e-21 0.00000000e+00)
22.5            	bot_wall	(-4.58779158e-02 -2.38414200e-19 0.00000000e+00)	(-4.58779158e-02 -2.38414200e-19 0.00000000e+00)
