/*--------------------------------*- C++ -*----------------------------------*\
| =========                 |                                                 |
| \\      /  F ield         | OpenFOAM: The Open Source CFD Toolbox           |
|  \\    /   O peration     | Version:  2406                                  |
|   \\  /    A nd           | Website:  www.openfoam.com                      |
|    \\/     M anipulation  |                                                 |
\*---------------------------------------------------------------------------*/
FoamFile
{
    version     2.0;
    format      ascii;
    arch        "LSB;label=32;scalar=64";
    class       volScalarField;
    location    "20.33";
    object      epsilon;
}
// * * * * * * * * * * * * * * * * * * * * * * * * * * * * * * * * * * * * * //

dimensions      [0 2 -3 0 0 0 0];

internalField   nonuniform List<scalar> 
1000
(
38.5386
18.4485
12.7904
10.2057
8.6199
7.50613
6.66696
6.00657
5.47088
5.02637
4.65087
4.32904
4.04986
3.80518
3.58886
3.39614
3.22329
3.06733
2.92586
2.79693
2.67891
2.57045
2.47043
2.37788
2.29199
2.21205
2.13746
2.0677
2.0023
1.94087
1.88304
1.82852
1.77703
1.72831
1.68214
1.63834
1.59672
1.55712
1.51939
1.48342
1.44907
1.41623
1.38482
1.35474
1.32591
1.29824
1.27168
1.24615
1.2216
1.19797
1.17521
1.15328
1.13212
1.1117
1.09198
1.07293
1.05451
1.0367
1.01945
1.00275
0.986569
0.970885
0.955674
0.940916
0.926591
0.91268
0.899165
0.88603
0.873259
0.860838
0.848751
0.836986
0.825531
0.814373
0.8035
0.792902
0.78257
0.772492
0.76266
0.753065
0.743698
0.734552
0.725618
0.71689
0.70836
0.700023
0.69187
0.683897
0.676097
0.668465
0.660996
0.653684
0.646524
0.639512
0.632644
0.625914
0.619319
0.612854
0.606517
0.600302
0.594207
0.588228
0.582362
0.576605
0.570955
0.565409
0.559963
0.554616
0.549363
0.544204
0.539134
0.534153
0.529257
0.524445
0.519713
0.515061
0.510487
0.505987
0.501561
0.497206
0.492921
0.488704
0.484553
0.480467
0.476444
0.472483
0.468582
0.46474
0.460956
0.457227
0.453554
0.449934
0.446366
0.442849
0.439383
0.435965
0.432595
0.429272
0.425995
0.422762
0.419574
0.416428
0.413323
0.41026
0.407237
0.404254
0.401308
0.398401
0.39553
0.392696
0.389896
0.387132
0.384401
0.381704
0.379039
0.376406
0.373804
0.371234
0.368693
0.366181
0.363699
0.361245
0.358819
0.356419
0.354047
0.351701
0.349381
0.347085
0.344815
0.342569
0.340347
0.338148
0.335972
0.333818
0.331687
0.329577
0.327489
0.325422
0.323375
0.321348
0.319341
0.317354
0.315385
0.313436
0.311505
0.309592
0.307697
0.305819
0.303958
0.302114
0.300287
0.298476
0.296682
0.294902
0.293139
0.29139
0.289657
0.287938
0.286234
0.284543
0.282867
0.281204
0.279555
0.27792
0.276297
0.274687
0.27309
0.271505
0.269932
0.268371
0.266823
0.265285
0.26376
0.262245
0.260742
0.259249
0.257767
0.256296
0.254835
0.253384
0.251943
0.250512
0.249091
0.24768
0.246278
0.244885
0.243501
0.242127
0.240761
0.239404
0.238055
0.236715
0.235384
0.23406
0.232745
0.231437
0.230138
0.228846
0.227562
0.226285
0.225016
0.223753
0.222498
0.221251
0.22001
0.218776
0.217548
0.216328
0.215114
0.213906
0.212705
0.21151
0.210321
0.209139
0.207962
0.206791
0.205627
0.204468
0.203314
0.202167
0.201025
0.199888
0.198757
0.197631
0.19651
0.195395
0.194285
0.19318
0.192079
0.190984
0.189894
0.188808
0.187727
0.186651
0.185579
0.184512
0.18345
0.182392
0.181338
0.180289
0.179244
0.178204
0.177167
0.176135
0.175107
0.174083
0.173063
0.172047
0.171035
0.170027
0.169022
0.168022
0.167025
0.166032
0.165043
0.164058
0.163076
0.162098
0.161123
0.160152
0.159184
0.15822
0.15726
0.156303
0.155349
0.154398
0.153451
0.152508
0.151567
0.15063
0.149697
0.148766
0.147839
0.146915
0.145994
0.145076
0.144162
0.14325
0.142342
0.141437
0.140535
0.139636
0.13874
0.137847
0.136957
0.136071
0.135187
0.134306
0.133429
0.132554
0.131683
0.130814
0.129948
0.129086
0.128226
0.12737
0.126516
0.125666
0.124818
0.123973
0.123132
0.122293
0.121458
0.120625
0.119796
0.118969
0.118146
0.117325
0.116508
0.115694
0.114883
0.114074
0.113269
0.112467
0.111669
0.110873
0.11008
0.109291
0.108505
0.107721
0.106942
0.106165
0.105392
0.104621
0.103854
0.103091
0.102331
0.101574
0.10082
0.10007
0.0993233
0.09858
0.0978401
0.0971037
0.0963709
0.0956416
0.0949158
0.0941937
0.0934751
0.0927603
0.0920491
0.0913416
0.0906379
0.089938
0.0892418
0.0885496
0.0878612
0.0871767
0.0864962
0.0858196
0.0851471
0.0844786
0.0838143
0.083154
0.082498
0.0818461
0.0811985
0.0805552
0.0799162
0.0792816
0.0786514
0.0780256
0.0774044
0.0767876
0.0761755
0.0755679
0.0749651
0.0743669
0.0737735
0.0731849
0.0726011
0.0720222
0.0714482
0.0708792
0.0703152
0.0697563
0.0692024
0.0686538
0.0681103
0.067572
0.0670391
0.0665114
0.0659892
0.0654723
0.064961
0.0644551
0.0639548
0.0634601
0.062971
0.0624876
0.0620099
0.0615381
0.061072
0.0606118
0.0601575
0.0597091
0.0592668
0.0588304
0.0584001
0.057976
0.057558
0.0571462
0.0567406
0.0563412
0.0559482
0.0555616
0.0551813
0.0548074
0.05444
0.054079
0.0537246
0.0533768
0.0530355
0.0527009
0.0523729
0.0520516
0.051737
0.0514292
0.0511282
0.0508339
0.0505465
0.0502659
0.0499922
0.0497255
0.0494656
0.0492128
0.0489669
0.048728
0.0484961
0.0482713
0.0480535
0.0478428
0.0476392
0.0474428
0.0472535
0.0470713
0.0468963
0.0467285
0.0465679
0.0464144
0.0462683
0.0461293
0.0459976
0.0458732
0.045756
0.0456461
0.0455435
0.0454482
0.0453602
0.0452795
0.0452061
0.0451401
0.0450813
0.0450299
0.0449859
0.0449491
0.0449198
0.0448977
0.044883
0.0448757
0.0448757
0.044883
0.0448977
0.0449198
0.0449491
0.0449859
0.0450299
0.0450813
0.0451401
0.0452061
0.0452795
0.0453602
0.0454482
0.0455435
0.0456461
0.045756
0.0458732
0.0459976
0.0461293
0.0462683
0.0464145
0.0465679
0.0467285
0.0468963
0.0470713
0.0472535
0.0474428
0.0476393
0.0478428
0.0480535
0.0482713
0.0484961
0.048728
0.0489669
0.0492128
0.0494657
0.0497255
0.0499923
0.0502659
0.0505465
0.0508339
0.0511282
0.0514292
0.0517371
0.0520516
0.0523729
0.0527009
0.0530355
0.0533768
0.0537247
0.0540791
0.05444
0.0548074
0.0551813
0.0555616
0.0559482
0.0563413
0.0567406
0.0571462
0.057558
0.057976
0.0584002
0.0588304
0.0592668
0.0597091
0.0601575
0.0606118
0.061072
0.0615381
0.06201
0.0624876
0.062971
0.0634601
0.0639548
0.0644551
0.064961
0.0654724
0.0659892
0.0665115
0.0670391
0.0675721
0.0681103
0.0686538
0.0692025
0.0697563
0.0703152
0.0708792
0.0714482
0.0720222
0.0726011
0.0731849
0.0737735
0.0743669
0.0749651
0.075568
0.0761755
0.0767877
0.0774044
0.0780257
0.0786514
0.0792816
0.0799162
0.0805552
0.0811985
0.0818461
0.082498
0.0831541
0.0838143
0.0844787
0.0851471
0.0858197
0.0864962
0.0871767
0.0878612
0.0885496
0.0892419
0.089938
0.090638
0.0913417
0.0920492
0.0927603
0.0934752
0.0941937
0.0949159
0.0956416
0.0963709
0.0971038
0.0978402
0.09858
0.0993233
0.10007
0.10082
0.101574
0.102331
0.103091
0.103855
0.104621
0.105392
0.106165
0.106942
0.107722
0.108505
0.109291
0.11008
0.110873
0.111669
0.112467
0.113269
0.114075
0.114883
0.115694
0.116508
0.117326
0.118146
0.118969
0.119796
0.120625
0.121458
0.122294
0.123132
0.123974
0.124818
0.125666
0.126516
0.12737
0.128226
0.129086
0.129949
0.130814
0.131683
0.132554
0.133429
0.134306
0.135187
0.136071
0.136957
0.137847
0.13874
0.139636
0.140535
0.141437
0.142342
0.14325
0.144162
0.145076
0.145994
0.146915
0.147839
0.148766
0.149697
0.150631
0.151568
0.152508
0.153452
0.154399
0.155349
0.156303
0.15726
0.158221
0.159185
0.160152
0.161123
0.162098
0.163076
0.164058
0.165043
0.166033
0.167026
0.168022
0.169023
0.170027
0.171035
0.172047
0.173063
0.174083
0.175107
0.176135
0.177168
0.178204
0.179245
0.180289
0.181339
0.182392
0.18345
0.184513
0.18558
0.186651
0.187727
0.188808
0.189894
0.190984
0.19208
0.19318
0.194285
0.195395
0.196511
0.197631
0.198757
0.199888
0.201025
0.202167
0.203315
0.204468
0.205627
0.206792
0.207962
0.209139
0.210321
0.21151
0.212705
0.213906
0.215114
0.216328
0.217549
0.218776
0.22001
0.221251
0.222499
0.223754
0.225016
0.226285
0.227562
0.228846
0.230138
0.231438
0.232745
0.23406
0.235384
0.236716
0.238056
0.239404
0.240761
0.242127
0.243502
0.244885
0.246278
0.24768
0.249092
0.250513
0.251943
0.253384
0.254835
0.256296
0.257767
0.259249
0.260742
0.262245
0.26376
0.265286
0.266823
0.268372
0.269932
0.271505
0.27309
0.274687
0.276297
0.27792
0.279556
0.281205
0.282867
0.284544
0.286234
0.287938
0.289657
0.291391
0.293139
0.294903
0.296682
0.298477
0.300288
0.302115
0.303958
0.305819
0.307697
0.309592
0.311505
0.313436
0.315386
0.317354
0.319341
0.321348
0.323375
0.325422
0.327489
0.329578
0.331687
0.333818
0.335972
0.338148
0.340347
0.342569
0.344815
0.347086
0.349381
0.351701
0.354047
0.35642
0.358819
0.361245
0.363699
0.366182
0.368693
0.371234
0.373805
0.376406
0.379039
0.381704
0.384401
0.387132
0.389896
0.392696
0.39553
0.398401
0.401309
0.404254
0.407238
0.410261
0.413324
0.416428
0.419574
0.422763
0.425995
0.429273
0.432596
0.435965
0.439383
0.44285
0.446366
0.449934
0.453554
0.457227
0.460956
0.46474
0.468582
0.472483
0.476444
0.480467
0.484553
0.488704
0.492921
0.497206
0.501561
0.505987
0.510487
0.515062
0.519714
0.524445
0.529257
0.534153
0.539134
0.544204
0.549363
0.554616
0.559963
0.565409
0.570955
0.576605
0.582362
0.588228
0.594207
0.600302
0.606517
0.612854
0.619319
0.625914
0.632644
0.639512
0.646524
0.653684
0.660996
0.668465
0.676097
0.683897
0.69187
0.700022
0.70836
0.71689
0.725618
0.734552
0.743698
0.753065
0.76266
0.772492
0.78257
0.792902
0.8035
0.814372
0.825531
0.836986
0.848751
0.860838
0.873259
0.88603
0.899165
0.91268
0.926591
0.940916
0.955674
0.970885
0.986569
1.00275
1.01945
1.0367
1.05451
1.07293
1.09198
1.1117
1.13212
1.15327
1.17521
1.19797
1.2216
1.24615
1.27168
1.29824
1.32591
1.35474
1.38482
1.41623
1.44907
1.48342
1.51939
1.55712
1.59672
1.63834
1.68214
1.72831
1.77703
1.82852
1.88304
1.94086
2.0023
2.06769
2.13746
2.21205
2.29199
2.37788
2.47043
2.57045
2.67891
2.79693
2.92586
3.06733
3.22329
3.39614
3.58886
3.80518
4.04985
4.32904
4.65087
5.02637
5.47088
6.00657
6.66696
7.50613
8.6199
10.2057
12.7904
18.4484
38.5386
)
;

boundaryField
{
    top_wall
    {
        type            epsilonWallFunction;
        blending        stepwise;
        value           uniform 38.5386;
    }
    inlet
    {
        type            cyclic;
    }
    bot_wall
    {
        type            epsilonWallFunction;
        blending        stepwise;
        value           uniform 38.5386;
    }
    outlet
    {
        type            cyclic;
    }
    frontAndBack
    {
        type            empty;
    }
}


// ************************************************************************* //
