/*--------------------------------*- C++ -*----------------------------------*\
| =========                 |                                                 |
| \\      /  F ield         | OpenFOAM: The Open Source CFD Toolbox           |
|  \\    /   O peration     | Version:  2406                                  |
|   \\  /    A nd           | Website:  www.openfoam.com                      |
|    \\/     M anipulation  |                                                 |
\*---------------------------------------------------------------------------*/
FoamFile
{
    version     2.0;
    format      ascii;
    arch        "LSB;label=32;scalar=64";
    class       volScalarField;
    location    "20.33";
    object      k;
}
// * * * * * * * * * * * * * * * * * * * * * * * * * * * * * * * * * * * * * //

dimensions      [0 2 -2 0 0 0 0];

internalField   nonuniform List<scalar> 
1000
(
0.13223
0.130118
0.158464
0.183969
0.202793
0.216583
0.226929
0.234895
0.241169
0.246201
0.250299
0.253678
0.25649
0.258849
0.26084
0.262529
0.263966
0.265191
0.266236
0.267128
0.267887
0.268531
0.269076
0.269532
0.269911
0.270222
0.270471
0.270667
0.270813
0.270916
0.270979
0.271007
0.271002
0.270968
0.270907
0.270822
0.270714
0.270586
0.27044
0.270276
0.270096
0.269901
0.269693
0.269473
0.269241
0.268998
0.268746
0.268484
0.268213
0.267935
0.267649
0.267356
0.267057
0.266752
0.266441
0.266124
0.265803
0.265477
0.265147
0.264813
0.264475
0.264133
0.263788
0.26344
0.263089
0.262735
0.262378
0.262019
0.261657
0.261294
0.260928
0.26056
0.260191
0.259819
0.259446
0.259072
0.258695
0.258318
0.257939
0.257559
0.257177
0.256795
0.256411
0.256027
0.255641
0.255254
0.254867
0.254478
0.254089
0.253699
0.253308
0.252917
0.252525
0.252132
0.251738
0.251344
0.250949
0.250554
0.250158
0.249762
0.249365
0.248967
0.248569
0.248171
0.247772
0.247372
0.246972
0.246572
0.246171
0.24577
0.245368
0.244966
0.244563
0.24416
0.243757
0.243353
0.242949
0.242544
0.242139
0.241734
0.241328
0.240921
0.240515
0.240107
0.2397
0.239292
0.238883
0.238475
0.238065
0.237656
0.237245
0.236835
0.236424
0.236012
0.2356
0.235188
0.234775
0.234362
0.233948
0.233534
0.233119
0.232704
0.232289
0.231872
0.231456
0.231039
0.230621
0.230203
0.229784
0.229365
0.228945
0.228525
0.228104
0.227683
0.227261
0.226838
0.226415
0.225992
0.225567
0.225143
0.224717
0.224291
0.223865
0.223438
0.22301
0.222581
0.222152
0.221723
0.221292
0.220861
0.22043
0.219997
0.219564
0.219131
0.218696
0.218261
0.217826
0.217389
0.216952
0.216514
0.216076
0.215636
0.215196
0.214756
0.214314
0.213872
0.213429
0.212985
0.212541
0.212096
0.21165
0.211203
0.210755
0.210307
0.209858
0.209408
0.208957
0.208506
0.208053
0.2076
0.207146
0.206691
0.206236
0.205779
0.205322
0.204864
0.204405
0.203945
0.203484
0.203022
0.20256
0.202097
0.201632
0.201167
0.200701
0.200235
0.199767
0.199298
0.198829
0.198359
0.197887
0.197415
0.196942
0.196468
0.195993
0.195517
0.195041
0.194563
0.194085
0.193605
0.193125
0.192643
0.192161
0.191678
0.191194
0.190709
0.190223
0.189736
0.189249
0.18876
0.18827
0.18778
0.187288
0.186796
0.186302
0.185808
0.185313
0.184817
0.18432
0.183822
0.183323
0.182823
0.182322
0.18182
0.181318
0.180814
0.18031
0.179804
0.179298
0.17879
0.178282
0.177773
0.177263
0.176752
0.17624
0.175728
0.175214
0.1747
0.174184
0.173668
0.173151
0.172633
0.172114
0.171594
0.171073
0.170552
0.170029
0.169506
0.168982
0.168457
0.167931
0.167405
0.166877
0.166349
0.16582
0.16529
0.16476
0.164228
0.163696
0.163163
0.162629
0.162095
0.161559
0.161023
0.160487
0.159949
0.159411
0.158872
0.158332
0.157792
0.157251
0.15671
0.156167
0.155624
0.155081
0.154537
0.153992
0.153446
0.1529
0.152354
0.151807
0.151259
0.150711
0.150162
0.149613
0.149063
0.148513
0.147962
0.147411
0.14686
0.146308
0.145755
0.145203
0.14465
0.144096
0.143543
0.142988
0.142434
0.141879
0.141325
0.140769
0.140214
0.139659
0.139103
0.138547
0.137991
0.137435
0.136879
0.136322
0.135766
0.13521
0.134654
0.134097
0.133541
0.132985
0.132429
0.131873
0.131317
0.130762
0.130206
0.129651
0.129097
0.128542
0.127988
0.127434
0.126881
0.126328
0.125775
0.125223
0.124671
0.12412
0.12357
0.12302
0.122471
0.121922
0.121375
0.120828
0.120281
0.119736
0.119191
0.118648
0.118105
0.117563
0.117023
0.116483
0.115945
0.115407
0.114871
0.114336
0.113803
0.11327
0.112739
0.11221
0.111682
0.111155
0.11063
0.110107
0.109585
0.109065
0.108546
0.10803
0.107515
0.107002
0.106491
0.105982
0.105475
0.10497
0.104468
0.103967
0.103469
0.102973
0.10248
0.101988
0.1015
0.101014
0.10053
0.100049
0.0995708
0.0990953
0.0986226
0.0981528
0.0976859
0.097222
0.0967611
0.0963034
0.0958488
0.0953974
0.0949493
0.0945045
0.0940632
0.0936253
0.0931909
0.0927601
0.092333
0.0919095
0.0914899
0.091074
0.090662
0.090254
0.08985
0.08945
0.0890542
0.0886626
0.0882752
0.0878921
0.0875134
0.0871391
0.0867692
0.0864039
0.0860433
0.0856872
0.0853359
0.0849894
0.0846476
0.0843108
0.0839789
0.083652
0.0833301
0.0830134
0.0827017
0.0823953
0.0820942
0.0817983
0.0815078
0.0812227
0.0809431
0.080669
0.0804004
0.0801374
0.07988
0.0796283
0.0793824
0.0791422
0.0789078
0.0786793
0.0784566
0.0782399
0.0780292
0.0778244
0.0776257
0.0774331
0.0772465
0.0770661
0.0768919
0.0767238
0.076562
0.0764065
0.0762572
0.0761142
0.0759776
0.0758473
0.0757234
0.0756059
0.0754948
0.0753901
0.0752919
0.0752002
0.0751149
0.0750362
0.0749639
0.0748982
0.0748391
0.0747864
0.0747404
0.0747009
0.074668
0.0746416
0.0746219
0.0746087
0.0746021
0.0746021
0.0746087
0.0746219
0.0746416
0.074668
0.0747009
0.0747404
0.0747865
0.0748391
0.0748982
0.0749639
0.0750362
0.0751149
0.0752002
0.0752919
0.0753901
0.0754948
0.0756059
0.0757234
0.0758473
0.0759776
0.0761142
0.0762572
0.0764065
0.0765621
0.0767239
0.0768919
0.0770661
0.0772466
0.0774331
0.0776257
0.0778244
0.0780292
0.0782399
0.0784567
0.0786793
0.0789078
0.0791422
0.0793824
0.0796283
0.07988
0.0801374
0.0804004
0.080669
0.0809431
0.0812227
0.0815078
0.0817983
0.0820942
0.0823953
0.0827018
0.0830134
0.0833301
0.083652
0.0839789
0.0843108
0.0846477
0.0849894
0.0853359
0.0856872
0.0860433
0.086404
0.0867692
0.0871391
0.0875134
0.0878921
0.0882752
0.0886626
0.0890542
0.0894501
0.08985
0.090254
0.0906621
0.091074
0.0914899
0.0919096
0.092333
0.0927601
0.0931909
0.0936253
0.0940632
0.0945046
0.0949493
0.0953974
0.0958488
0.0963034
0.0967611
0.097222
0.0976859
0.0981528
0.0986226
0.0990953
0.0995708
0.100049
0.10053
0.101014
0.1015
0.101988
0.10248
0.102973
0.103469
0.103967
0.104468
0.104971
0.105475
0.105982
0.106491
0.107002
0.107515
0.10803
0.108546
0.109065
0.109585
0.110107
0.11063
0.111155
0.111682
0.11221
0.112739
0.11327
0.113803
0.114336
0.114871
0.115407
0.115945
0.116483
0.117023
0.117564
0.118105
0.118648
0.119191
0.119736
0.120281
0.120828
0.121375
0.121922
0.122471
0.12302
0.12357
0.12412
0.124671
0.125223
0.125775
0.126328
0.126881
0.127434
0.127988
0.128542
0.129097
0.129651
0.130206
0.130762
0.131317
0.131873
0.132429
0.132985
0.133541
0.134097
0.134654
0.13521
0.135766
0.136323
0.136879
0.137435
0.137991
0.138547
0.139103
0.139659
0.140214
0.140769
0.141325
0.141879
0.142434
0.142988
0.143543
0.144096
0.14465
0.145203
0.145756
0.146308
0.14686
0.147411
0.147962
0.148513
0.149063
0.149613
0.150162
0.150711
0.151259
0.151807
0.152354
0.1529
0.153446
0.153992
0.154537
0.155081
0.155624
0.156167
0.15671
0.157251
0.157792
0.158332
0.158872
0.159411
0.159949
0.160487
0.161023
0.161559
0.162095
0.162629
0.163163
0.163696
0.164228
0.16476
0.16529
0.16582
0.166349
0.166877
0.167405
0.167931
0.168457
0.168982
0.169506
0.170029
0.170552
0.171073
0.171594
0.172114
0.172633
0.173151
0.173668
0.174184
0.1747
0.175214
0.175728
0.176241
0.176752
0.177263
0.177773
0.178282
0.178791
0.179298
0.179804
0.18031
0.180814
0.181318
0.18182
0.182322
0.182823
0.183323
0.183822
0.18432
0.184817
0.185313
0.185808
0.186302
0.186796
0.187288
0.18778
0.18827
0.18876
0.189249
0.189736
0.190223
0.190709
0.191194
0.191678
0.192161
0.192644
0.193125
0.193605
0.194085
0.194563
0.195041
0.195517
0.195993
0.196468
0.196942
0.197415
0.197887
0.198359
0.198829
0.199298
0.199767
0.200235
0.200702
0.201167
0.201633
0.202097
0.20256
0.203022
0.203484
0.203945
0.204405
0.204864
0.205322
0.205779
0.206236
0.206691
0.207146
0.2076
0.208053
0.208506
0.208957
0.209408
0.209858
0.210307
0.210755
0.211203
0.21165
0.212096
0.212541
0.212985
0.213429
0.213872
0.214314
0.214756
0.215196
0.215636
0.216076
0.216514
0.216952
0.217389
0.217826
0.218261
0.218696
0.219131
0.219564
0.219997
0.22043
0.220861
0.221292
0.221723
0.222152
0.222581
0.22301
0.223438
0.223865
0.224291
0.224717
0.225143
0.225568
0.225992
0.226415
0.226838
0.227261
0.227683
0.228104
0.228525
0.228945
0.229365
0.229784
0.230203
0.230621
0.231039
0.231456
0.231872
0.232289
0.232704
0.233119
0.233534
0.233948
0.234362
0.234775
0.235188
0.2356
0.236012
0.236424
0.236835
0.237245
0.237656
0.238065
0.238475
0.238883
0.239292
0.2397
0.240107
0.240515
0.240921
0.241328
0.241734
0.242139
0.242544
0.242949
0.243353
0.243757
0.24416
0.244563
0.244966
0.245368
0.24577
0.246171
0.246572
0.246972
0.247372
0.247772
0.248171
0.248569
0.248967
0.249365
0.249762
0.250158
0.250554
0.25095
0.251344
0.251738
0.252132
0.252525
0.252917
0.253308
0.253699
0.254089
0.254478
0.254867
0.255254
0.255641
0.256027
0.256411
0.256795
0.257177
0.257559
0.257939
0.258318
0.258695
0.259071
0.259446
0.259819
0.260191
0.26056
0.260928
0.261294
0.261657
0.262019
0.262378
0.262735
0.263089
0.26344
0.263788
0.264133
0.264475
0.264813
0.265147
0.265477
0.265803
0.266124
0.266441
0.266752
0.267057
0.267356
0.267649
0.267935
0.268213
0.268484
0.268746
0.268998
0.269241
0.269473
0.269693
0.269901
0.270096
0.270276
0.270439
0.270586
0.270714
0.270822
0.270907
0.270968
0.271002
0.271007
0.270979
0.270916
0.270813
0.270667
0.270471
0.270222
0.269911
0.269532
0.269076
0.268531
0.267887
0.267128
0.266236
0.265191
0.263966
0.262529
0.26084
0.258849
0.25649
0.253678
0.250299
0.246201
0.241169
0.234895
0.226929
0.216583
0.202793
0.183969
0.158464
0.130118
0.13223
)
;

boundaryField
{
    top_wall
    {
        type            kLowReWallFunction;
        value           uniform 0.00126316;
    }
    inlet
    {
        type            cyclic;
    }
    bot_wall
    {
        type            kLowReWallFunction;
        value           uniform 0.00126316;
    }
    outlet
    {
        type            cyclic;
    }
    frontAndBack
    {
        type            empty;
    }
}


// ************************************************************************* //
