/*--------------------------------*- C++ -*----------------------------------*\
| =========                 |                                                 |
| \\      /  F ield         | OpenFOAM: The Open Source CFD Toolbox           |
|  \\    /   O peration     | Version:  2406                                  |
|   \\  /    A nd           | Website:  www.openfoam.com                      |
|    \\/     M anipulation  |                                                 |
\*---------------------------------------------------------------------------*/
FoamFile
{
    version     2.0;
    format      ascii;
    arch        "LSB;label=32;scalar=64";
    class       volScalarField;
    location    "20.33";
    object      nut;
}
// * * * * * * * * * * * * * * * * * * * * * * * * * * * * * * * * * * * * * //

dimensions      [0 2 -1 0 0 0 0];

internalField   nonuniform List<scalar> 
1000
(
4.08324e-05
8.25961e-05
0.000176694
0.000298462
0.000429385
0.000562437
0.000695175
0.000826732
0.000956813
0.00108535
0.00121235
0.00133787
0.00146198
0.00158474
0.00170622
0.00182646
0.00194553
0.00206347
0.00218033
0.00229614
0.00241095
0.00252478
0.00263766
0.00274963
0.0028607
0.00297091
0.00308026
0.00318879
0.0032965
0.00340342
0.00350956
0.00361494
0.00371957
0.00382346
0.00392662
0.00402908
0.00413082
0.00423187
0.00433224
0.00443193
0.00453096
0.00462932
0.00472704
0.0048241
0.00492053
0.00501633
0.0051115
0.00520605
0.00529999
0.00539331
0.00548603
0.00557816
0.00566968
0.00576062
0.00585096
0.00594073
0.00602991
0.00611852
0.00620656
0.00629403
0.00638093
0.00646727
0.00655305
0.00663827
0.00672294
0.00680705
0.00689062
0.00697364
0.00705611
0.00713805
0.00721944
0.00730029
0.00738061
0.0074604
0.00753965
0.00761837
0.00769656
0.00777423
0.00785137
0.00792799
0.00800408
0.00807965
0.00815471
0.00822924
0.00830327
0.00837677
0.00844976
0.00852224
0.00859421
0.00866566
0.00873661
0.00880705
0.00887699
0.00894642
0.00901534
0.00908376
0.00915168
0.0092191
0.00928602
0.00935244
0.00941836
0.00948378
0.00954871
0.00961314
0.00967707
0.00974052
0.00980347
0.00986593
0.0099279
0.00998938
0.0100504
0.0101109
0.0101709
0.0102304
0.0102895
0.010348
0.0104061
0.0104637
0.0105208
0.0105774
0.0106336
0.0106893
0.0107444
0.0107992
0.0108534
0.0109072
0.0109605
0.0110133
0.0110656
0.0111175
0.0111689
0.0112198
0.0112703
0.0113202
0.0113698
0.0114188
0.0114674
0.0115155
0.0115632
0.0116104
0.0116571
0.0117034
0.0117492
0.0117945
0.0118394
0.0118839
0.0119278
0.0119714
0.0120144
0.012057
0.0120992
0.0121409
0.0121822
0.012223
0.0122633
0.0123032
0.0123427
0.0123817
0.0124203
0.0124584
0.0124961
0.0125333
0.0125701
0.0126065
0.0126424
0.0126779
0.0127129
0.0127475
0.0127817
0.0128154
0.0128487
0.0128816
0.0129141
0.0129461
0.0129777
0.0130088
0.0130396
0.0130699
0.0130998
0.0131292
0.0131583
0.0131869
0.0132151
0.0132429
0.0132703
0.0132972
0.0133238
0.0133499
0.0133756
0.0134009
0.0134258
0.0134503
0.0134744
0.0134981
0.0135213
0.0135442
0.0135667
0.0135887
0.0136104
0.0136317
0.0136525
0.013673
0.0136931
0.0137128
0.0137321
0.013751
0.0137695
0.0137876
0.0138054
0.0138227
0.0138397
0.0138563
0.0138725
0.0138883
0.0139038
0.0139189
0.0139336
0.0139479
0.0139618
0.0139754
0.0139886
0.0140015
0.014014
0.0140261
0.0140378
0.0140492
0.0140602
0.0140709
0.0140812
0.0140911
0.0141007
0.0141099
0.0141188
0.0141273
0.0141355
0.0141433
0.0141508
0.0141579
0.0141647
0.0141712
0.0141773
0.0141831
0.0141885
0.0141936
0.0141983
0.0142028
0.0142069
0.0142106
0.014214
0.0142171
0.0142199
0.0142224
0.0142245
0.0142263
0.0142278
0.014229
0.0142298
0.0142304
0.0142306
0.0142305
0.0142301
0.0142295
0.0142284
0.0142271
0.0142255
0.0142236
0.0142214
0.0142189
0.0142161
0.014213
0.0142096
0.0142059
0.0142019
0.0141977
0.0141931
0.0141883
0.0141832
0.0141778
0.0141721
0.0141661
0.0141599
0.0141534
0.0141467
0.0141396
0.0141323
0.0141248
0.0141169
0.0141088
0.0141005
0.0140919
0.014083
0.0140739
0.0140645
0.0140549
0.014045
0.0140349
0.0140245
0.0140139
0.0140031
0.013992
0.0139807
0.0139692
0.0139574
0.0139454
0.0139332
0.0139207
0.0139081
0.0138952
0.013882
0.0138687
0.0138552
0.0138414
0.0138275
0.0138133
0.013799
0.0137844
0.0137696
0.0137547
0.0137395
0.0137242
0.0137086
0.0136929
0.013677
0.0136609
0.0136447
0.0136282
0.0136116
0.0135948
0.0135779
0.0135608
0.0135435
0.0135261
0.0135085
0.0134908
0.0134729
0.0134548
0.0134366
0.0134183
0.0133999
0.0133813
0.0133625
0.0133437
0.0133247
0.0133056
0.0132864
0.013267
0.0132476
0.013228
0.0132083
0.0131886
0.0131687
0.0131487
0.0131287
0.0131085
0.0130883
0.0130679
0.0130476
0.0130271
0.0130065
0.0129859
0.0129653
0.0129445
0.0129237
0.0129029
0.012882
0.0128611
0.0128401
0.0128191
0.0127981
0.012777
0.0127559
0.0127348
0.0127137
0.0126925
0.0126714
0.0126502
0.0126291
0.0126079
0.0125868
0.0125657
0.0125446
0.0125235
0.0125024
0.0124814
0.0124604
0.0124395
0.0124186
0.0123978
0.012377
0.0123562
0.0123356
0.012315
0.0122945
0.012274
0.0122536
0.0122334
0.0122132
0.0121931
0.0121731
0.0121532
0.0121334
0.0121138
0.0120942
0.0120748
0.0120555
0.0120364
0.0120174
0.0119985
0.0119798
0.0119612
0.0119428
0.0119245
0.0119064
0.0118885
0.0118707
0.0118531
0.0118357
0.0118185
0.0118014
0.0117846
0.011768
0.0117515
0.0117353
0.0117192
0.0117034
0.0116878
0.0116724
0.0116572
0.0116422
0.0116275
0.0116129
0.0115987
0.0115846
0.0115708
0.0115572
0.0115438
0.0115307
0.0115179
0.0115052
0.0114929
0.0114807
0.0114688
0.0114572
0.0114458
0.0114346
0.0114237
0.0114131
0.0114027
0.0113925
0.0113826
0.011373
0.0113636
0.0113544
0.0113455
0.0113368
0.0113284
0.0113202
0.0113122
0.0113045
0.0112971
0.0112898
0.0112828
0.011276
0.0112695
0.0112631
0.011257
0.0112512
0.0112455
0.01124
0.0112348
0.0112298
0.0112249
0.0112203
0.0112159
0.0112117
0.0112076
0.0112038
0.0112001
0.0111966
0.0111934
0.0111902
0.0111873
0.0111845
0.0111819
0.0111795
0.0111773
0.0111752
0.0111732
0.0111714
0.0111698
0.0111683
0.011167
0.0111658
0.0111648
0.011164
0.0111632
0.0111627
0.0111622
0.0111619
0.0111618
0.0111618
0.0111619
0.0111622
0.0111627
0.0111632
0.011164
0.0111648
0.0111658
0.011167
0.0111683
0.0111698
0.0111714
0.0111732
0.0111752
0.0111773
0.0111795
0.0111819
0.0111845
0.0111873
0.0111902
0.0111934
0.0111966
0.0112001
0.0112038
0.0112076
0.0112117
0.0112159
0.0112203
0.0112249
0.0112298
0.0112348
0.01124
0.0112455
0.0112512
0.011257
0.0112631
0.0112695
0.011276
0.0112828
0.0112898
0.0112971
0.0113045
0.0113122
0.0113202
0.0113284
0.0113368
0.0113455
0.0113544
0.0113636
0.011373
0.0113826
0.0113925
0.0114027
0.0114131
0.0114237
0.0114346
0.0114458
0.0114572
0.0114688
0.0114807
0.0114929
0.0115052
0.0115179
0.0115307
0.0115438
0.0115572
0.0115708
0.0115846
0.0115987
0.0116129
0.0116275
0.0116422
0.0116572
0.0116724
0.0116878
0.0117034
0.0117192
0.0117353
0.0117515
0.011768
0.0117846
0.0118014
0.0118185
0.0118357
0.0118531
0.0118707
0.0118885
0.0119064
0.0119245
0.0119428
0.0119612
0.0119798
0.0119985
0.0120174
0.0120364
0.0120555
0.0120748
0.0120942
0.0121138
0.0121334
0.0121532
0.0121731
0.0121931
0.0122132
0.0122334
0.0122536
0.012274
0.0122945
0.012315
0.0123356
0.0123562
0.012377
0.0123978
0.0124186
0.0124395
0.0124604
0.0124814
0.0125024
0.0125235
0.0125446
0.0125657
0.0125868
0.0126079
0.0126291
0.0126502
0.0126714
0.0126925
0.0127137
0.0127348
0.0127559
0.012777
0.0127981
0.0128191
0.0128401
0.0128611
0.012882
0.0129029
0.0129237
0.0129445
0.0129653
0.0129859
0.0130065
0.0130271
0.0130476
0.0130679
0.0130883
0.0131085
0.0131287
0.0131487
0.0131687
0.0131886
0.0132083
0.013228
0.0132476
0.013267
0.0132864
0.0133056
0.0133247
0.0133437
0.0133625
0.0133813
0.0133999
0.0134183
0.0134366
0.0134548
0.0134729
0.0134907
0.0135085
0.0135261
0.0135435
0.0135608
0.0135779
0.0135948
0.0136116
0.0136282
0.0136447
0.0136609
0.013677
0.0136929
0.0137086
0.0137242
0.0137395
0.0137547
0.0137696
0.0137844
0.0137989
0.0138133
0.0138275
0.0138414
0.0138552
0.0138687
0.013882
0.0138952
0.013908
0.0139207
0.0139332
0.0139454
0.0139574
0.0139692
0.0139807
0.013992
0.0140031
0.0140139
0.0140245
0.0140349
0.014045
0.0140549
0.0140645
0.0140739
0.014083
0.0140919
0.0141005
0.0141088
0.0141169
0.0141247
0.0141323
0.0141396
0.0141467
0.0141534
0.0141599
0.0141661
0.0141721
0.0141778
0.0141832
0.0141883
0.0141931
0.0141976
0.0142019
0.0142059
0.0142096
0.014213
0.0142161
0.0142189
0.0142214
0.0142236
0.0142255
0.0142271
0.0142284
0.0142294
0.0142301
0.0142305
0.0142306
0.0142304
0.0142298
0.014229
0.0142278
0.0142263
0.0142245
0.0142224
0.0142199
0.0142171
0.014214
0.0142106
0.0142068
0.0142028
0.0141983
0.0141936
0.0141885
0.0141831
0.0141773
0.0141712
0.0141647
0.0141579
0.0141508
0.0141433
0.0141355
0.0141273
0.0141188
0.0141099
0.0141007
0.0140911
0.0140812
0.0140709
0.0140602
0.0140492
0.0140378
0.0140261
0.014014
0.0140015
0.0139886
0.0139754
0.0139618
0.0139479
0.0139336
0.0139189
0.0139038
0.0138883
0.0138725
0.0138563
0.0138397
0.0138227
0.0138054
0.0137876
0.0137695
0.013751
0.0137321
0.0137128
0.0136931
0.013673
0.0136525
0.0136317
0.0136104
0.0135887
0.0135667
0.0135442
0.0135213
0.0134981
0.0134744
0.0134503
0.0134258
0.0134009
0.0133756
0.0133499
0.0133238
0.0132972
0.0132703
0.0132429
0.0132151
0.0131869
0.0131583
0.0131292
0.0130998
0.0130699
0.0130396
0.0130088
0.0129777
0.0129461
0.0129141
0.0128816
0.0128487
0.0128154
0.0127817
0.0127475
0.0127129
0.0126779
0.0126424
0.0126065
0.0125701
0.0125333
0.0124961
0.0124584
0.0124203
0.0123817
0.0123427
0.0123032
0.0122633
0.012223
0.0121822
0.0121409
0.0120992
0.012057
0.0120144
0.0119714
0.0119278
0.0118839
0.0118394
0.0117945
0.0117492
0.0117034
0.0116571
0.0116104
0.0115632
0.0115155
0.0114674
0.0114188
0.0113698
0.0113202
0.0112703
0.0112198
0.0111689
0.0111175
0.0110656
0.0110133
0.0109605
0.0109072
0.0108534
0.0107992
0.0107444
0.0106893
0.0106336
0.0105774
0.0105208
0.0104637
0.0104061
0.010348
0.0102895
0.0102304
0.0101709
0.0101109
0.0100504
0.00998938
0.0099279
0.00986593
0.00980347
0.00974052
0.00967708
0.00961314
0.00954871
0.00948378
0.00941836
0.00935244
0.00928602
0.0092191
0.00915168
0.00908376
0.00901534
0.00894642
0.00887699
0.00880706
0.00873661
0.00866567
0.00859421
0.00852224
0.00844976
0.00837677
0.00830327
0.00822925
0.00815471
0.00807965
0.00800408
0.00792799
0.00785137
0.00777423
0.00769656
0.00761837
0.00753965
0.0074604
0.00738061
0.00730029
0.00721944
0.00713805
0.00705611
0.00697364
0.00689062
0.00680705
0.00672294
0.00663827
0.00655305
0.00646727
0.00638093
0.00629403
0.00620656
0.00611852
0.00602991
0.00594073
0.00585096
0.00576062
0.00566968
0.00557816
0.00548604
0.00539331
0.00529999
0.00520605
0.0051115
0.00501633
0.00492053
0.00482411
0.00472704
0.00462932
0.00453096
0.00443194
0.00433224
0.00423187
0.00413082
0.00402908
0.00392663
0.00382346
0.00371957
0.00361494
0.00350956
0.00340342
0.0032965
0.00318879
0.00308026
0.00297091
0.0028607
0.00274963
0.00263766
0.00252478
0.00241095
0.00229614
0.00218033
0.00206347
0.00194553
0.00182646
0.00170622
0.00158474
0.00146198
0.00133787
0.00121235
0.00108535
0.000956813
0.000826732
0.000695175
0.000562437
0.000429385
0.000298462
0.000176694
8.25961e-05
4.08324e-05
)
;

boundaryField
{
    top_wall
    {
        type            nutLowReWallFunction;
        value           uniform 0;
    }
    inlet
    {
        type            cyclic;
    }
    bot_wall
    {
        type            nutLowReWallFunction;
        value           uniform 0;
    }
    outlet
    {
        type            cyclic;
    }
    frontAndBack
    {
        type            empty;
    }
}


// ************************************************************************* //
