/*--------------------------------*- C++ -*----------------------------------*\
| =========                 |                                                 |
| \\      /  F ield         | OpenFOAM: The Open Source CFD Toolbox           |
|  \\    /   O peration     | Version:  2406                                  |
|   \\  /    A nd           | Website:  www.openfoam.com                      |
|    \\/     M anipulation  |                                                 |
\*---------------------------------------------------------------------------*/
FoamFile
{
    version     2.0;
    format      ascii;
    arch        "LSB;label=32;scalar=64";
    class       volScalarField;
    location    "20.33";
    object      p;
}
// * * * * * * * * * * * * * * * * * * * * * * * * * * * * * * * * * * * * * //

dimensions      [0 2 -2 0 0 0 0];

internalField   nonuniform List<scalar> 
1000
(
1.59571e-19
1.16428e-18
1.38366e-18
1.21615e-18
1.16834e-18
1.20774e-18
1.27827e-18
1.52399e-18
1.98976e-18
1.60745e-18
1.33855e-18
1.46463e-18
1.46463e-18
1.51376e-18
1.14544e-18
1.76222e-18
2.11915e-18
2.2449e-18
2.37736e-18
2.51646e-18
2.66215e-18
2.81437e-18
2.97306e-18
3.13817e-18
3.30965e-18
3.48745e-18
3.67152e-18
3.8618e-18
4.05826e-18
4.26084e-18
4.46951e-18
4.68421e-18
4.90491e-18
5.13156e-18
5.36412e-18
5.60255e-18
5.84681e-18
6.09685e-18
6.35265e-18
6.61415e-18
6.88133e-18
7.15413e-18
7.43254e-18
7.7165e-18
8.00598e-18
8.30096e-18
8.60138e-18
8.90721e-18
9.21842e-18
9.53498e-18
9.85685e-18
1.0184e-17
1.05164e-17
1.0854e-17
1.11967e-17
1.15446e-17
1.18976e-17
1.22557e-17
1.26188e-17
1.2987e-17
1.33601e-17
1.37381e-17
1.41211e-17
1.45089e-17
1.49016e-17
1.52991e-17
1.57014e-17
1.61085e-17
1.65202e-17
1.69367e-17
1.73578e-17
1.77835e-17
1.82139e-17
1.86488e-17
1.90883e-17
1.95322e-17
1.99807e-17
2.04335e-17
2.08908e-17
2.13525e-17
2.18186e-17
2.2289e-17
2.27636e-17
2.32426e-17
2.37257e-17
2.42131e-17
2.47047e-17
2.52004e-17
2.57003e-17
2.62042e-17
2.67122e-17
2.72242e-17
2.77403e-17
2.82603e-17
2.87842e-17
2.93121e-17
2.98439e-17
3.03795e-17
3.0919e-17
3.14623e-17
3.20093e-17
3.25601e-17
3.31146e-17
3.36728e-17
3.42347e-17
3.48002e-17
3.53693e-17
3.5942e-17
3.65182e-17
3.7098e-17
3.76812e-17
3.82679e-17
3.88581e-17
3.94516e-17
4.00486e-17
4.06489e-17
4.12525e-17
4.18595e-17
4.24697e-17
4.30831e-17
4.36998e-17
4.43197e-17
4.49427e-17
4.55688e-17
4.61981e-17
4.68305e-17
4.74659e-17
4.81043e-17
4.87457e-17
4.93901e-17
5.00375e-17
5.06877e-17
5.13409e-17
5.19969e-17
5.26558e-17
5.33175e-17
5.39819e-17
5.46492e-17
5.53191e-17
5.73371e-17
6.13892e-17
5.86772e-17
5.79966e-17
5.86798e-17
5.93656e-17
6.00539e-17
6.07448e-17
6.14382e-17
6.2134e-17
6.28323e-17
6.3533e-17
6.42361e-17
6.49415e-17
6.56493e-17
6.63594e-17
6.70718e-17
6.77865e-17
6.85034e-17
6.92225e-17
6.99438e-17
7.06673e-17
7.13929e-17
7.21206e-17
7.28505e-17
7.35823e-17
7.43162e-17
7.50521e-17
7.57901e-17
7.72698e-17
7.80116e-17
7.57804e-17
7.05612e-17
7.57935e-17
7.80414e-17
7.80414e-17
7.80414e-17
7.80414e-17
7.80414e-17
7.80414e-17
7.80414e-17
7.80414e-17
7.80414e-17
7.80414e-17
7.80414e-17
7.80414e-17
7.80414e-17
7.80414e-17
7.80414e-17
7.80414e-17
7.80414e-17
7.80414e-17
7.80414e-17
7.80414e-17
7.80414e-17
7.80414e-17
7.80414e-17
7.80414e-17
7.80414e-17
7.80414e-17
7.80414e-17
7.80414e-17
7.80414e-17
7.48723e-17
6.85251e-17
7.48812e-17
7.80636e-17
7.80636e-17
7.80636e-17
7.80636e-17
7.80636e-17
7.80636e-17
7.80636e-17
7.80636e-17
7.80636e-17
7.80636e-17
7.80636e-17
7.80636e-17
7.80636e-17
7.80636e-17
7.80636e-17
7.80636e-17
7.80636e-17
7.80636e-17
7.80636e-17
7.80636e-17
7.80636e-17
7.80636e-17
7.80636e-17
7.80636e-17
7.80636e-17
7.80636e-17
7.80636e-17
7.80636e-17
7.80636e-17
7.80636e-17
7.80636e-17
7.80636e-17
7.80636e-17
7.80636e-17
7.80636e-17
7.80636e-17
7.80636e-17
7.80636e-17
7.80636e-17
7.80636e-17
7.80636e-17
7.80636e-17
7.80636e-17
7.80636e-17
7.80636e-17
7.80636e-17
7.80636e-17
7.80636e-17
7.80636e-17
7.80636e-17
7.80636e-17
7.80636e-17
7.80636e-17
7.80636e-17
7.80636e-17
7.80636e-17
7.80636e-17
7.80636e-17
7.80636e-17
7.80636e-17
7.80636e-17
7.80636e-17
7.80636e-17
7.80636e-17
7.80636e-17
7.80636e-17
7.80636e-17
7.80636e-17
7.80636e-17
7.80636e-17
7.80636e-17
7.80636e-17
7.80636e-17
7.80636e-17
7.80636e-17
7.80636e-17
7.80636e-17
7.80636e-17
7.80636e-17
7.80636e-17
7.80636e-17
7.80636e-17
7.80636e-17
7.80636e-17
7.80636e-17
7.80636e-17
7.80636e-17
7.80636e-17
7.80636e-17
7.80636e-17
7.80636e-17
7.80636e-17
7.80636e-17
7.80636e-17
7.80636e-17
7.80636e-17
7.80636e-17
7.80636e-17
7.80636e-17
7.80636e-17
7.80636e-17
7.80636e-17
7.80636e-17
7.80636e-17
7.80636e-17
7.80636e-17
7.80636e-17
7.80636e-17
7.80636e-17
7.80636e-17
7.80636e-17
7.80636e-17
7.80636e-17
7.80636e-17
7.80636e-17
7.80636e-17
7.80636e-17
7.80636e-17
7.80636e-17
7.80636e-17
7.80636e-17
7.80636e-17
7.80636e-17
7.80636e-17
7.80636e-17
7.80636e-17
7.80636e-17
7.80636e-17
7.80636e-17
7.80636e-17
7.80636e-17
7.80636e-17
7.80636e-17
7.80636e-17
7.80636e-17
7.80636e-17
7.80636e-17
7.80636e-17
7.80636e-17
7.80636e-17
7.80636e-17
7.80636e-17
7.80636e-17
7.80636e-17
7.80636e-17
7.80636e-17
7.80636e-17
7.80636e-17
7.80636e-17
7.80636e-17
7.80636e-17
7.80636e-17
7.80636e-17
7.80636e-17
7.80636e-17
7.80636e-17
7.80636e-17
7.80636e-17
7.80636e-17
7.80636e-17
7.80636e-17
7.80636e-17
7.80636e-17
7.80636e-17
7.80636e-17
7.80636e-17
7.80636e-17
7.80636e-17
7.80636e-17
7.80636e-17
7.80636e-17
7.80636e-17
7.80636e-17
7.80636e-17
7.80636e-17
7.80636e-17
7.80636e-17
7.80636e-17
7.80636e-17
7.80636e-17
7.80636e-17
7.80636e-17
7.80636e-17
7.80636e-17
7.80636e-17
7.80636e-17
7.80636e-17
7.80636e-17
7.80636e-17
7.80636e-17
7.80636e-17
7.80636e-17
7.80636e-17
7.80636e-17
7.80636e-17
7.80636e-17
7.80636e-17
7.80636e-17
7.80636e-17
7.80636e-17
7.80636e-17
7.80636e-17
7.80636e-17
7.80636e-17
7.80636e-17
7.80636e-17
7.80636e-17
7.80636e-17
7.80636e-17
7.80636e-17
7.80636e-17
7.80636e-17
7.80636e-17
7.80636e-17
7.80636e-17
7.80636e-17
7.80636e-17
7.80636e-17
7.80636e-17
7.80636e-17
7.80636e-17
7.80636e-17
7.80636e-17
7.80636e-17
7.80636e-17
7.80636e-17
7.80636e-17
7.80636e-17
7.80636e-17
7.80636e-17
7.80636e-17
7.80636e-17
7.80636e-17
7.80636e-17
7.80636e-17
7.80636e-17
7.80636e-17
7.80636e-17
7.80636e-17
7.80636e-17
7.80636e-17
7.80636e-17
7.80636e-17
7.80636e-17
7.80636e-17
7.80636e-17
7.80636e-17
7.80636e-17
7.80636e-17
7.80636e-17
7.80636e-17
7.80636e-17
7.80636e-17
7.80636e-17
7.80636e-17
7.80636e-17
7.80636e-17
7.80636e-17
7.80636e-17
7.80636e-17
7.80636e-17
7.80636e-17
7.80636e-17
7.80636e-17
7.80636e-17
7.80636e-17
7.80636e-17
7.80636e-17
7.80636e-17
7.80636e-17
7.80636e-17
7.80636e-17
7.80636e-17
7.80636e-17
7.80636e-17
7.80636e-17
7.80636e-17
7.80636e-17
7.80636e-17
7.80636e-17
7.80636e-17
7.80636e-17
7.80636e-17
7.80636e-17
7.80636e-17
7.80636e-17
7.80636e-17
7.80636e-17
7.80636e-17
7.80636e-17
7.80636e-17
7.80636e-17
7.80636e-17
7.80636e-17
7.80636e-17
7.80636e-17
7.80636e-17
7.80636e-17
7.80636e-17
7.80636e-17
7.80636e-17
7.80636e-17
7.80636e-17
7.80636e-17
7.80636e-17
7.80636e-17
7.80636e-17
7.80636e-17
7.80636e-17
7.80636e-17
7.80636e-17
7.80636e-17
7.80636e-17
7.80636e-17
7.80636e-17
7.80636e-17
7.80636e-17
7.80636e-17
7.80636e-17
7.80636e-17
7.80636e-17
7.80636e-17
7.80636e-17
7.80636e-17
7.80636e-17
7.80636e-17
7.80636e-17
7.80636e-17
7.80636e-17
7.80636e-17
7.80636e-17
7.80636e-17
7.80636e-17
7.80636e-17
7.80636e-17
7.80636e-17
7.80636e-17
7.80636e-17
7.80636e-17
7.80636e-17
7.80636e-17
7.80636e-17
7.80636e-17
7.80636e-17
7.80636e-17
7.80636e-17
7.80636e-17
7.80636e-17
7.80636e-17
7.80636e-17
7.80636e-17
7.80636e-17
7.80636e-17
7.80636e-17
7.80636e-17
7.80636e-17
7.80636e-17
7.80636e-17
7.80636e-17
7.80636e-17
7.80636e-17
7.80636e-17
7.80636e-17
7.80636e-17
7.80636e-17
7.80636e-17
7.80636e-17
7.80636e-17
7.80636e-17
7.80636e-17
7.80636e-17
7.80636e-17
7.80636e-17
7.80636e-17
7.80636e-17
7.80636e-17
7.80636e-17
7.80636e-17
7.80636e-17
7.80636e-17
7.80636e-17
7.80636e-17
7.80636e-17
7.80636e-17
7.80636e-17
7.80636e-17
7.80636e-17
7.80636e-17
7.80636e-17
7.80636e-17
7.80636e-17
7.80636e-17
7.80636e-17
7.80636e-17
7.80636e-17
7.80636e-17
7.80636e-17
7.80636e-17
7.80636e-17
7.80636e-17
7.80636e-17
7.80636e-17
7.80636e-17
7.80636e-17
7.80636e-17
7.80636e-17
7.80636e-17
7.80636e-17
7.80636e-17
7.80636e-17
7.80636e-17
7.80636e-17
7.80636e-17
7.80636e-17
7.80636e-17
7.80636e-17
7.80636e-17
7.80636e-17
7.80636e-17
7.80636e-17
7.80636e-17
7.80636e-17
7.80636e-17
7.80636e-17
7.80636e-17
7.80636e-17
7.80636e-17
7.80636e-17
7.80636e-17
7.80636e-17
7.80636e-17
7.80635e-17
7.80635e-17
7.80635e-17
7.80635e-17
7.80635e-17
7.80635e-17
7.80635e-17
7.80635e-17
7.80635e-17
7.80635e-17
7.80635e-17
7.80635e-17
7.80635e-17
7.80635e-17
7.80635e-17
7.80635e-17
7.80635e-17
7.80635e-17
7.80635e-17
7.80635e-17
7.80635e-17
7.80635e-17
7.80635e-17
7.80635e-17
7.80635e-17
7.80635e-17
7.80635e-17
7.80635e-17
7.80635e-17
7.80635e-17
7.80635e-17
7.80635e-17
7.80635e-17
7.80635e-17
7.80635e-17
7.80635e-17
7.80635e-17
7.80635e-17
7.80635e-17
7.80635e-17
7.80635e-17
7.80635e-17
7.80635e-17
7.80635e-17
7.80635e-17
7.80635e-17
7.80635e-17
7.80635e-17
7.80635e-17
7.80635e-17
7.80635e-17
7.80635e-17
7.80635e-17
7.80635e-17
7.80635e-17
7.80635e-17
7.80635e-17
7.80635e-17
7.80635e-17
7.80635e-17
7.80635e-17
7.80635e-17
7.80635e-17
7.80635e-17
7.80635e-17
7.80635e-17
7.80635e-17
7.80635e-17
7.80635e-17
7.80635e-17
7.80635e-17
7.80635e-17
7.80635e-17
7.80635e-17
7.80635e-17
7.80635e-17
7.80635e-17
7.80635e-17
7.80635e-17
7.80635e-17
7.80635e-17
7.80635e-17
7.80635e-17
7.80635e-17
7.80635e-17
7.80635e-17
7.80635e-17
7.80635e-17
7.80635e-17
7.80635e-17
7.80635e-17
7.80635e-17
7.80635e-17
7.80635e-17
7.80635e-17
7.80635e-17
7.80635e-17
7.80635e-17
7.80635e-17
7.80635e-17
7.80635e-17
7.80635e-17
7.80635e-17
7.80635e-17
7.80635e-17
7.80635e-17
7.80635e-17
7.80635e-17
7.80635e-17
7.80635e-17
7.80635e-17
7.80635e-17
7.80635e-17
7.80635e-17
7.80635e-17
7.80635e-17
7.80635e-17
7.80635e-17
7.80635e-17
7.80635e-17
7.80635e-17
7.80635e-17
7.80635e-17
7.80635e-17
7.80635e-17
7.80635e-17
7.80635e-17
7.80635e-17
7.80635e-17
7.80635e-17
7.80635e-17
7.80635e-17
7.80635e-17
7.80635e-17
7.80635e-17
7.80635e-17
7.80635e-17
7.80635e-17
7.80635e-17
7.80635e-17
7.80635e-17
7.80635e-17
7.80635e-17
7.80635e-17
7.80635e-17
7.80635e-17
7.80635e-17
7.80635e-17
7.80635e-17
7.80635e-17
7.80635e-17
7.80635e-17
7.80635e-17
7.80635e-17
7.80635e-17
7.80635e-17
7.80635e-17
7.80635e-17
7.80635e-17
7.80635e-17
7.80635e-17
7.80635e-17
7.80635e-17
7.80635e-17
7.80635e-17
7.80635e-17
7.80635e-17
7.80635e-17
7.80635e-17
7.80635e-17
7.80635e-17
7.80635e-17
7.80635e-17
7.80635e-17
7.80635e-17
7.80635e-17
7.80635e-17
7.80635e-17
7.80635e-17
7.80635e-17
7.80635e-17
7.80635e-17
7.80635e-17
7.80635e-17
7.80635e-17
7.80635e-17
7.80635e-17
7.80635e-17
7.80635e-17
7.80635e-17
7.80635e-17
7.80635e-17
7.80635e-17
7.80635e-17
7.80635e-17
7.80635e-17
7.80635e-17
7.80635e-17
7.80635e-17
7.80635e-17
7.80635e-17
7.80635e-17
7.80635e-17
7.80635e-17
7.80635e-17
7.80635e-17
7.80635e-17
7.80635e-17
7.80635e-17
7.80635e-17
7.80635e-17
7.80635e-17
7.80635e-17
7.80635e-17
7.80635e-17
7.80635e-17
7.80635e-17
7.80635e-17
7.80635e-17
7.80635e-17
7.80635e-17
7.80635e-17
7.80635e-17
7.80635e-17
7.80635e-17
7.80635e-17
7.80635e-17
7.80635e-17
7.80635e-17
7.80635e-17
7.80635e-17
7.80635e-17
7.80635e-17
7.80635e-17
7.80635e-17
7.80635e-17
7.80635e-17
7.80635e-17
7.80635e-17
7.80635e-17
7.80635e-17
7.80635e-17
7.80635e-17
7.80635e-17
7.80635e-17
7.80635e-17
7.80635e-17
7.80635e-17
7.80635e-17
7.80635e-17
7.80635e-17
7.80635e-17
7.80635e-17
7.80635e-17
7.80635e-17
7.80635e-17
7.80635e-17
7.80635e-17
7.80635e-17
7.80635e-17
7.80635e-17
7.80635e-17
7.80635e-17
7.80635e-17
7.80635e-17
7.80635e-17
7.80635e-17
7.80635e-17
7.80635e-17
7.80635e-17
7.80635e-17
7.80635e-17
7.80635e-17
7.80635e-17
7.80635e-17
7.80635e-17
7.80635e-17
7.80635e-17
7.80635e-17
7.80635e-17
7.80635e-17
7.80635e-17
7.80635e-17
7.80635e-17
7.80635e-17
7.80635e-17
7.80635e-17
7.80635e-17
7.80635e-17
7.80635e-17
7.80635e-17
7.80635e-17
7.80635e-17
7.80635e-17
7.80635e-17
7.80635e-17
7.80635e-17
7.80635e-17
7.80635e-17
7.80635e-17
7.80635e-17
7.80635e-17
7.80635e-17
7.80635e-17
7.80635e-17
7.80635e-17
7.80635e-17
7.80635e-17
7.80635e-17
7.80635e-17
7.80635e-17
7.80635e-17
7.80635e-17
7.80635e-17
7.80635e-17
7.80635e-17
7.80635e-17
7.80635e-17
7.80635e-17
7.80635e-17
7.80635e-17
7.80635e-17
7.80635e-17
7.80635e-17
7.80635e-17
7.80635e-17
7.80635e-17
7.80635e-17
7.80635e-17
7.80635e-17
7.80635e-17
7.80635e-17
7.80635e-17
7.80635e-17
7.80635e-17
7.80635e-17
7.80635e-17
7.80635e-17
7.80635e-17
7.80635e-17
7.80635e-17
7.80635e-17
7.80635e-17
7.80635e-17
7.80635e-17
7.80635e-17
7.80635e-17
7.80635e-17
7.80635e-17
7.80635e-17
7.80635e-17
7.80635e-17
7.80635e-17
7.80635e-17
7.80635e-17
7.80635e-17
7.80635e-17
7.80635e-17
7.80635e-17
7.80635e-17
7.80635e-17
7.80635e-17
7.80635e-17
7.80635e-17
)
;

boundaryField
{
    top_wall
    {
        type            zeroGradient;
    }
    inlet
    {
        type            cyclic;
    }
    bot_wall
    {
        type            zeroGradient;
    }
    outlet
    {
        type            cyclic;
    }
    frontAndBack
    {
        type            empty;
    }
}


// ************************************************************************* //
