/*--------------------------------*- C++ -*----------------------------------*\
| =========                 |                                                 |
| \\      /  F ield         | OpenFOAM: The Open Source CFD Toolbox           |
|  \\    /   O peration     | Version:  2406                                  |
|   \\  /    A nd           | Website:  www.openfoam.com                      |
|    \\/     M anipulation  |                                                 |
\*---------------------------------------------------------------------------*/
FoamFile
{
    version     2.0;
    format      ascii;
    arch        "LSB;label=32;scalar=64";
    class       surfaceScalarField;
    location    "20.33";
    object      phi;
}
// * * * * * * * * * * * * * * * * * * * * * * * * * * * * * * * * * * * * * //

dimensions      [0 3 -1 0 0 0 0];

oriented        oriented;

internalField   nonuniform List<scalar> 
999
(
-2.73388e-19
-2.7571e-19
-2.78809e-19
-2.79923e-19
-2.69863e-19
-2.57527e-19
-2.44218e-19
-2.55443e-19
-2.29122e-19
-2.18179e-19
-2.48646e-19
-2.4757e-19
-2.34241e-19
-2.34868e-19
-2.65756e-19
-2.67784e-19
-2.70672e-19
-2.74131e-19
-2.76408e-19
-2.78441e-19
-2.8025e-19
-2.81855e-19
-2.83279e-19
-2.84541e-19
-2.85656e-19
-2.86639e-19
-2.875e-19
-2.88248e-19
-2.88889e-19
-2.8943e-19
-2.89874e-19
-2.90226e-19
-2.90487e-19
-2.90662e-19
-2.90752e-19
-2.90759e-19
-2.90684e-19
-2.9053e-19
-2.90298e-19
-2.89988e-19
-2.89603e-19
-2.89144e-19
-2.88611e-19
-2.88006e-19
-2.8733e-19
-2.86584e-19
-2.85768e-19
-2.84885e-19
-2.83935e-19
-2.82918e-19
-2.81836e-19
-2.8069e-19
-2.7948e-19
-2.78207e-19
-2.76873e-19
-2.75477e-19
-2.74021e-19
-2.72505e-19
-2.7093e-19
-2.69296e-19
-2.67604e-19
-2.65854e-19
-2.64048e-19
-2.62184e-19
-2.60264e-19
-2.58289e-19
-2.56257e-19
-2.54171e-19
-2.52029e-19
-2.49833e-19
-2.47583e-19
-2.45278e-19
-2.4292e-19
-2.40509e-19
-2.38045e-19
-2.35528e-19
-2.32959e-19
-2.30339e-19
-2.27668e-19
-2.24947e-19
-2.22178e-19
-2.1936e-19
-2.16496e-19
-2.13587e-19
-2.10635e-19
-2.07642e-19
-2.04609e-19
-2.01542e-19
-1.98441e-19
-1.95311e-19
-1.92157e-19
-1.88983e-19
-1.85794e-19
-1.82596e-19
-1.79397e-19
-1.76204e-19
-1.73024e-19
-1.69867e-19
-1.66743e-19
-1.63662e-19
-1.60636e-19
-1.57678e-19
-1.54798e-19
-1.52013e-19
-1.49334e-19
-1.46777e-19
-1.44357e-19
-1.42088e-19
-1.39984e-19
-1.38062e-19
-1.36335e-19
-1.34818e-19
-1.33527e-19
-1.32475e-19
-1.31601e-19
-1.30914e-19
-1.30498e-19
-1.3036e-19
-1.30522e-19
-1.30938e-19
-1.3156e-19
-1.32409e-19
-1.33536e-19
-1.34995e-19
-1.368e-19
-1.38969e-19
-1.41522e-19
-1.44446e-19
-1.47738e-19
-1.51432e-19
-1.55568e-19
-1.60193e-19
-1.65372e-19
-1.71225e-19
-1.77913e-19
-1.85615e-19
-1.94595e-19
-2.04012e-19
-2.14824e-19
-2.3204e-19
-1.69932e-19
-1.87164e-19
-1.97945e-19
-2.07189e-19
-2.15904e-19
-2.23258e-19
-2.29518e-19
-2.34901e-19
-2.39541e-19
-2.43529e-19
-2.46933e-19
-2.498e-19
-2.52163e-19
-2.54052e-19
-2.55494e-19
-2.5651e-19
-2.57121e-19
-2.57346e-19
-2.57204e-19
-2.56711e-19
-2.55884e-19
-2.54742e-19
-2.53302e-19
-2.51552e-19
-2.49478e-19
-2.47092e-19
-2.4383e-19
-2.41997e-19
-2.35985e-19
-2.30092e-19
-2.24149e-19
-2.10031e-19
-2.0727e-19
-2.0876e-19
-2.10318e-19
-2.09873e-19
-2.09241e-19
-2.08463e-19
-2.07542e-19
-2.0648e-19
-2.05272e-19
-2.03918e-19
-2.02412e-19
-2.0075e-19
-1.98927e-19
-1.9694e-19
-1.94787e-19
-1.92505e-19
-1.90141e-19
-1.87735e-19
-1.85357e-19
-1.83119e-19
-1.81155e-19
-1.79628e-19
-1.78768e-19
-1.7881e-19
-1.79912e-19
-1.82108e-19
-1.85261e-19
-1.89137e-19
-1.96892e-19
-2.05901e-19
-2.16546e-19
-2.23068e-19
-2.33621e-19
-2.42461e-19
-2.50039e-19
-2.53758e-19
-2.56757e-19
-2.58776e-19
-2.59685e-19
-2.59518e-19
-2.58437e-19
-2.56671e-19
-2.54444e-19
-2.51915e-19
-2.49211e-19
-2.46437e-19
-2.43657e-19
-2.40931e-19
-2.38297e-19
-2.3575e-19
-2.33279e-19
-2.30892e-19
-2.28596e-19
-2.26371e-19
-2.24201e-19
-2.22071e-19
-2.19972e-19
-2.17897e-19
-2.1584e-19
-2.13798e-19
-2.11772e-19
-2.0976e-19
-2.07764e-19
-2.05784e-19
-2.03823e-19
-2.01881e-19
-1.9996e-19
-1.98061e-19
-1.96187e-19
-1.94337e-19
-1.92513e-19
-1.90715e-19
-1.88944e-19
-1.872e-19
-1.85483e-19
-1.83794e-19
-1.82133e-19
-1.80499e-19
-1.78894e-19
-1.77317e-19
-1.75768e-19
-1.74247e-19
-1.72755e-19
-1.71291e-19
-1.69856e-19
-1.6845e-19
-1.67073e-19
-1.65726e-19
-1.64408e-19
-1.6312e-19
-1.61862e-19
-1.60634e-19
-1.59436e-19
-1.58268e-19
-1.57131e-19
-1.56024e-19
-1.54948e-19
-1.53902e-19
-1.52887e-19
-1.51903e-19
-1.50948e-19
-1.50024e-19
-1.4913e-19
-1.48266e-19
-1.47431e-19
-1.46626e-19
-1.4585e-19
-1.45103e-19
-1.44384e-19
-1.43693e-19
-1.4303e-19
-1.42394e-19
-1.41785e-19
-1.41202e-19
-1.40646e-19
-1.40115e-19
-1.39608e-19
-1.39127e-19
-1.38669e-19
-1.38235e-19
-1.37824e-19
-1.37435e-19
-1.37068e-19
-1.36723e-19
-1.36398e-19
-1.36093e-19
-1.35809e-19
-1.35543e-19
-1.35296e-19
-1.35067e-19
-1.34855e-19
-1.34661e-19
-1.34482e-19
-1.3432e-19
-1.34173e-19
-1.3404e-19
-1.33922e-19
-1.33817e-19
-1.33726e-19
-1.33646e-19
-1.33579e-19
-1.33524e-19
-1.33479e-19
-1.33445e-19
-1.33421e-19
-1.33407e-19
-1.33401e-19
-1.33404e-19
-1.33415e-19
-1.33433e-19
-1.33459e-19
-1.33491e-19
-1.33529e-19
-1.33573e-19
-1.33623e-19
-1.33677e-19
-1.33736e-19
-1.33799e-19
-1.33865e-19
-1.33935e-19
-1.34008e-19
-1.34083e-19
-1.34161e-19
-1.3424e-19
-1.34321e-19
-1.34403e-19
-1.34486e-19
-1.34569e-19
-1.34653e-19
-1.34736e-19
-1.34819e-19
-1.34902e-19
-1.34983e-19
-1.35064e-19
-1.35142e-19
-1.3522e-19
-1.35295e-19
-1.35368e-19
-1.35438e-19
-1.35506e-19
-1.35571e-19
-1.35633e-19
-1.35692e-19
-1.35747e-19
-1.35799e-19
-1.35847e-19
-1.35891e-19
-1.35931e-19
-1.35966e-19
-1.35998e-19
-1.36024e-19
-1.36046e-19
-1.36063e-19
-1.36076e-19
-1.36083e-19
-1.36085e-19
-1.36082e-19
-1.36074e-19
-1.3606e-19
-1.36041e-19
-1.36016e-19
-1.35985e-19
-1.35949e-19
-1.35907e-19
-1.35859e-19
-1.35805e-19
-1.35745e-19
-1.35679e-19
-1.35607e-19
-1.35529e-19
-1.35445e-19
-1.35355e-19
-1.35259e-19
-1.35156e-19
-1.35048e-19
-1.34933e-19
-1.34811e-19
-1.34684e-19
-1.3455e-19
-1.34411e-19
-1.34264e-19
-1.34112e-19
-1.33953e-19
-1.33789e-19
-1.33618e-19
-1.33441e-19
-1.33257e-19
-1.33068e-19
-1.32872e-19
-1.32671e-19
-1.32463e-19
-1.3225e-19
-1.3203e-19
-1.31804e-19
-1.31573e-19
-1.31335e-19
-1.31092e-19
-1.30843e-19
-1.30588e-19
-1.30328e-19
-1.30062e-19
-1.2979e-19
-1.29513e-19
-1.2923e-19
-1.28942e-19
-1.28649e-19
-1.2835e-19
-1.28046e-19
-1.27737e-19
-1.27422e-19
-1.27103e-19
-1.26778e-19
-1.26449e-19
-1.26114e-19
-1.25775e-19
-1.25431e-19
-1.25083e-19
-1.24729e-19
-1.24371e-19
-1.24009e-19
-1.23642e-19
-1.23271e-19
-1.22896e-19
-1.22516e-19
-1.22133e-19
-1.21745e-19
-1.21353e-19
-1.20957e-19
-1.20558e-19
-1.20155e-19
-1.19748e-19
-1.19337e-19
-1.18923e-19
-1.18505e-19
-1.18084e-19
-1.1766e-19
-1.17232e-19
-1.16801e-19
-1.16367e-19
-1.1593e-19
-1.1549e-19
-1.15047e-19
-1.14601e-19
-1.14153e-19
-1.13702e-19
-1.13248e-19
-1.12792e-19
-1.12333e-19
-1.11872e-19
-1.11408e-19
-1.10942e-19
-1.10474e-19
-1.10004e-19
-1.09532e-19
-1.09058e-19
-1.08582e-19
-1.08104e-19
-1.07624e-19
-1.07143e-19
-1.0666e-19
-1.06175e-19
-1.05689e-19
-1.05202e-19
-1.04713e-19
-1.04222e-19
-1.03731e-19
-1.03238e-19
-1.02744e-19
-1.02249e-19
-1.01752e-19
-1.01255e-19
-1.00757e-19
-1.00258e-19
-9.97585e-20
-9.9258e-20
-9.87568e-20
-9.82549e-20
-9.77525e-20
-9.72494e-20
-9.67459e-20
-9.6242e-20
-9.57376e-20
-9.52329e-20
-9.47279e-20
-9.42227e-20
-9.37172e-20
-9.32116e-20
-9.27059e-20
-9.22001e-20
-9.16943e-20
-9.11886e-20
-9.06829e-20
-9.01773e-20
-8.96719e-20
-8.91667e-20
-8.86617e-20
-8.8157e-20
-8.76527e-20
-8.71487e-20
-8.66451e-20
-8.61419e-20
-8.56393e-20
-8.51371e-20
-8.46355e-20
-8.41346e-20
-8.36342e-20
-8.31345e-20
-8.26355e-20
-8.21373e-20
-8.16398e-20
-8.11432e-20
-8.06474e-20
-8.01524e-20
-7.96584e-20
-7.91654e-20
-7.86733e-20
-7.81822e-20
-7.76922e-20
-7.72032e-20
-7.67154e-20
-7.62287e-20
-7.57431e-20
-7.52588e-20
-7.47757e-20
-7.42938e-20
-7.38132e-20
-7.3334e-20
-7.2856e-20
-7.23795e-20
-7.19043e-20
-7.14306e-20
-7.09583e-20
-7.04875e-20
-7.00182e-20
-6.95504e-20
-6.90842e-20
-6.86196e-20
-6.81565e-20
-6.76951e-20
-6.72353e-20
-6.67772e-20
-6.63207e-20
-6.5866e-20
-6.5413e-20
-6.49617e-20
-6.45123e-20
-6.40646e-20
-6.36187e-20
-6.31747e-20
-6.27325e-20
-6.22921e-20
-6.18537e-20
-6.14171e-20
-6.09825e-20
-6.05498e-20
-6.0119e-20
-5.96902e-20
-5.92633e-20
-5.88385e-20
-5.84156e-20
-5.79947e-20
-5.75759e-20
-5.71591e-20
-5.67444e-20
-5.63317e-20
-5.59211e-20
-5.55125e-20
-5.51061e-20
-5.47017e-20
-5.42995e-20
-5.38993e-20
-5.35013e-20
-5.31054e-20
-5.27116e-20
-5.232e-20
-5.19305e-20
-5.15432e-20
-5.1158e-20
-5.0775e-20
-5.03941e-20
-5.00154e-20
-4.96389e-20
-4.92645e-20
-4.88923e-20
-4.85223e-20
-4.81545e-20
-4.77888e-20
-4.74254e-20
-4.70641e-20
-4.67049e-20
-4.6348e-20
-4.59932e-20
-4.56407e-20
-4.52903e-20
-4.4942e-20
-4.4596e-20
-4.42521e-20
-4.39104e-20
-4.35708e-20
-4.32334e-20
-4.28982e-20
-4.25651e-20
-4.22342e-20
-4.19054e-20
-4.15788e-20
-4.12543e-20
-4.0932e-20
-4.06117e-20
-4.02936e-20
-3.99777e-20
-3.96638e-20
-3.9352e-20
-3.90424e-20
-3.87348e-20
-3.84293e-20
-3.81259e-20
-3.78246e-20
-3.75254e-20
-3.72282e-20
-3.6933e-20
-3.664e-20
-3.63489e-20
-3.60599e-20
-3.57729e-20
-3.54879e-20
-3.52049e-20
-3.4924e-20
-3.4645e-20
-3.4368e-20
-3.4093e-20
-3.38199e-20
-3.35488e-20
-3.32797e-20
-3.30125e-20
-3.27472e-20
-3.24838e-20
-3.22224e-20
-3.19628e-20
-3.17052e-20
-3.14494e-20
-3.11955e-20
-3.09435e-20
-3.06934e-20
-3.0445e-20
-3.01986e-20
-2.99539e-20
-2.97111e-20
-2.94701e-20
-2.92308e-20
-2.89934e-20
-2.87578e-20
-2.85239e-20
-2.82918e-20
-2.80614e-20
-2.78328e-20
-2.76059e-20
-2.73807e-20
-2.71572e-20
-2.69354e-20
-2.67154e-20
-2.6497e-20
-2.62803e-20
-2.60652e-20
-2.58518e-20
-2.564e-20
-2.54299e-20
-2.52214e-20
-2.50145e-20
-2.48092e-20
-2.46055e-20
-2.44034e-20
-2.42028e-20
-2.40039e-20
-2.38064e-20
-2.36105e-20
-2.34162e-20
-2.32234e-20
-2.30321e-20
-2.28423e-20
-2.26539e-20
-2.24671e-20
-2.22818e-20
-2.20979e-20
-2.19155e-20
-2.17345e-20
-2.1555e-20
-2.13768e-20
-2.12002e-20
-2.10249e-20
-2.0851e-20
-2.06785e-20
-2.05074e-20
-2.03377e-20
-2.01693e-20
-2.00023e-20
-1.98366e-20
-1.96723e-20
-1.95093e-20
-1.93476e-20
-1.91872e-20
-1.90281e-20
-1.88703e-20
-1.87138e-20
-1.85586e-20
-1.84046e-20
-1.82519e-20
-1.81004e-20
-1.79502e-20
-1.78011e-20
-1.76534e-20
-1.75068e-20
-1.73614e-20
-1.72172e-20
-1.70743e-20
-1.69325e-20
-1.67918e-20
-1.66523e-20
-1.6514e-20
-1.63768e-20
-1.62408e-20
-1.61059e-20
-1.59721e-20
-1.58394e-20
-1.57078e-20
-1.55773e-20
-1.54479e-20
-1.53196e-20
-1.51924e-20
-1.50662e-20
-1.49411e-20
-1.4817e-20
-1.4694e-20
-1.4572e-20
-1.44511e-20
-1.43311e-20
-1.42122e-20
-1.40942e-20
-1.39773e-20
-1.38614e-20
-1.37464e-20
-1.36324e-20
-1.35194e-20
-1.34073e-20
-1.32962e-20
-1.31861e-20
-1.30768e-20
-1.29686e-20
-1.28612e-20
-1.27547e-20
-1.26492e-20
-1.25446e-20
-1.24408e-20
-1.2338e-20
-1.2236e-20
-1.21349e-20
-1.20347e-20
-1.19354e-20
-1.18369e-20
-1.17392e-20
-1.16424e-20
-1.15464e-20
-1.14513e-20
-1.1357e-20
-1.12635e-20
-1.11708e-20
-1.1079e-20
-1.09879e-20
-1.08976e-20
-1.08081e-20
-1.07194e-20
-1.06315e-20
-1.05443e-20
-1.04579e-20
-1.03723e-20
-1.02874e-20
-1.02032e-20
-1.01198e-20
-1.00371e-20
-9.95516e-21
-9.87393e-21
-9.79342e-21
-9.71362e-21
-9.63453e-21
-9.55613e-21
-9.47843e-21
-9.40141e-21
-9.32508e-21
-9.24943e-21
-9.17445e-21
-9.10013e-21
-9.02648e-21
-8.95348e-21
-8.88113e-21
-8.80943e-21
-8.73837e-21
-8.66795e-21
-8.59815e-21
-8.52898e-21
-8.46043e-21
-8.3925e-21
-8.32517e-21
-8.25845e-21
-8.19233e-21
-8.12681e-21
-8.06187e-21
-7.99752e-21
-7.93375e-21
-7.87056e-21
-7.80793e-21
-7.74587e-21
-7.68438e-21
-7.62344e-21
-7.56305e-21
-7.50321e-21
-7.44392e-21
-7.38516e-21
-7.32693e-21
-7.26924e-21
-7.21207e-21
-7.15542e-21
-7.09928e-21
-7.04366e-21
-6.98854e-21
-6.93393e-21
-6.87982e-21
-6.8262e-21
-6.77307e-21
-6.72042e-21
-6.66826e-21
-6.61658e-21
-6.56536e-21
-6.51462e-21
-6.46434e-21
-6.41452e-21
-6.36516e-21
-6.31625e-21
-6.26779e-21
-6.21978e-21
-6.1722e-21
-6.12506e-21
-6.07835e-21
-6.03208e-21
-5.98622e-21
-5.94079e-21
-5.89578e-21
-5.85117e-21
-5.80698e-21
-5.76319e-21
-5.71981e-21
-5.67682e-21
-5.63422e-21
-5.59202e-21
-5.5502e-21
-5.50876e-21
-5.46771e-21
-5.42703e-21
-5.38672e-21
-5.34677e-21
-5.3072e-21
-5.26798e-21
-5.22912e-21
-5.19061e-21
-5.15245e-21
-5.11464e-21
-5.07717e-21
-5.04004e-21
-5.00324e-21
-4.96678e-21
-4.93064e-21
-4.89483e-21
-4.85934e-21
-4.82417e-21
-4.7893e-21
-4.75475e-21
-4.72051e-21
-4.68657e-21
-4.65292e-21
-4.61958e-21
-4.58652e-21
-4.55375e-21
-4.52127e-21
-4.48907e-21
-4.45715e-21
-4.4255e-21
-4.39411e-21
-4.363e-21
-4.33215e-21
-4.30156e-21
-4.27122e-21
-4.24114e-21
-4.2113e-21
-4.18171e-21
-4.15235e-21
-4.12324e-21
-4.09435e-21
-4.0657e-21
-4.03727e-21
-4.00906e-21
-3.98107e-21
-3.95328e-21
-3.92571e-21
-3.89835e-21
-3.87118e-21
-3.84421e-21
-3.81743e-21
-3.79083e-21
-3.76442e-21
-3.73819e-21
-3.71213e-21
-3.68625e-21
-3.66052e-21
-3.63496e-21
-3.60955e-21
-3.58428e-21
-3.55917e-21
-3.53419e-21
-3.50934e-21
-3.48463e-21
-3.46004e-21
-3.43556e-21
-3.41119e-21
-3.38693e-21
-3.36277e-21
-3.3387e-21
-3.31471e-21
-3.2908e-21
-3.26696e-21
-3.24319e-21
-3.21947e-21
-3.1958e-21
-3.17217e-21
-3.14857e-21
-3.12499e-21
-3.10143e-21
-3.07787e-21
-3.0543e-21
-3.03071e-21
-3.0071e-21
-2.98345e-21
-2.95974e-21
-2.93596e-21
-2.91211e-21
-2.88816e-21
-2.86411e-21
-2.83993e-21
-2.8156e-21
-2.79112e-21
-2.76646e-21
-2.74159e-21
-2.7165e-21
-2.69117e-21
-2.66556e-21
-2.63965e-21
-2.61341e-21
-2.58681e-21
-2.55981e-21
-2.53238e-21
-2.50446e-21
-2.47603e-21
-2.44702e-21
-2.41737e-21
-2.38704e-21
-2.35595e-21
-2.32401e-21
-2.29116e-21
-2.25728e-21
-2.22227e-21
-2.186e-21
-2.14832e-21
-2.10907e-21
-2.06804e-21
-2.02501e-21
-1.97968e-21
-1.93174e-21
-1.88076e-21
-1.82623e-21
-1.7675e-21
-1.70376e-21
-1.63389e-21
-1.55641e-21
-1.46923e-21
-1.36929e-21
-1.2519e-21
-1.10951e-21
-9.29638e-22
-6.94046e-22
-3.90529e-22
)
;

boundaryField
{
    top_wall
    {
        type            calculated;
        value           uniform 0;
    }
    inlet
    {
        type            cyclic;
        value           nonuniform List<scalar> 
1000
(
-2.354e-05
-5.94489e-05
-8.79028e-05
-0.000109297
-0.000125866
-0.000139266
-0.000150496
-0.000160163
-0.000168655
-0.000176234
-0.000183081
-0.00018933
-0.000195081
-0.00020041
-0.000205376
-0.000210029
-0.000214406
-0.00021854
-0.000222458
-0.000226182
-0.000229731
-0.000233122
-0.000236368
-0.000239482
-0.000242475
-0.000245357
-0.000248135
-0.000250818
-0.000253411
-0.000255922
-0.000258354
-0.000260714
-0.000263006
-0.000265234
-0.000267401
-0.000269511
-0.000271567
-0.000273571
-0.000275527
-0.000277437
-0.000279303
-0.000281127
-0.000282912
-0.000284658
-0.000286368
-0.000288043
-0.000289685
-0.000291295
-0.000292875
-0.000294425
-0.000295946
-0.000297441
-0.000298909
-0.000300353
-0.000301772
-0.000303167
-0.000304541
-0.000305892
-0.000307222
-0.000308532
-0.000309822
-0.000311094
-0.000312346
-0.000313581
-0.000314799
-0.000316
-0.000317184
-0.000318353
-0.000319506
-0.000320645
-0.000321769
-0.000322878
-0.000323975
-0.000325057
-0.000326127
-0.000327185
-0.00032823
-0.000329263
-0.000330284
-0.000331294
-0.000332293
-0.000333281
-0.000334258
-0.000335226
-0.000336183
-0.00033713
-0.000338068
-0.000338996
-0.000339916
-0.000340826
-0.000341727
-0.00034262
-0.000343505
-0.000344382
-0.00034525
-0.000346111
-0.000346964
-0.000347809
-0.000348647
-0.000349478
-0.000350302
-0.000351119
-0.000351929
-0.000352733
-0.00035353
-0.00035432
-0.000355104
-0.000355883
-0.000356655
-0.000357421
-0.000358182
-0.000358936
-0.000359686
-0.000360429
-0.000361167
-0.0003619
-0.000362628
-0.000363351
-0.000364069
-0.000364781
-0.000365489
-0.000366192
-0.000366891
-0.000367585
-0.000368274
-0.000368959
-0.000369639
-0.000370315
-0.000370987
-0.000371655
-0.000372319
-0.000372978
-0.000373634
-0.000374286
-0.000374934
-0.000375578
-0.000376218
-0.000376855
-0.000377488
-0.000378117
-0.000378743
-0.000379366
-0.000379985
-0.000380601
-0.000381213
-0.000381822
-0.000382428
-0.000383031
-0.000383631
-0.000384227
-0.000384821
-0.000385411
-0.000385999
-0.000386583
-0.000387165
-0.000387744
-0.00038832
-0.000388894
-0.000389464
-0.000390032
-0.000390598
-0.00039116
-0.00039172
-0.000392278
-0.000392833
-0.000393385
-0.000393935
-0.000394483
-0.000395028
-0.000395571
-0.000396112
-0.00039665
-0.000397186
-0.000397719
-0.000398251
-0.00039878
-0.000399307
-0.000399832
-0.000400355
-0.000400875
-0.000401394
-0.00040191
-0.000402425
-0.000402937
-0.000403448
-0.000403956
-0.000404463
-0.000404967
-0.00040547
-0.000405971
-0.00040647
-0.000406967
-0.000407462
-0.000407956
-0.000408447
-0.000408937
-0.000409425
-0.000409912
-0.000410396
-0.000410879
-0.00041136
-0.00041184
-0.000412318
-0.000412794
-0.000413269
-0.000413742
-0.000414213
-0.000414683
-0.000415151
-0.000415618
-0.000416083
-0.000416547
-0.000417009
-0.00041747
-0.000417929
-0.000418386
-0.000418843
-0.000419297
-0.00041975
-0.000420202
-0.000420653
-0.000421102
-0.000421549
-0.000421996
-0.00042244
-0.000422884
-0.000423326
-0.000423767
-0.000424206
-0.000424644
-0.000425081
-0.000425516
-0.00042595
-0.000426383
-0.000426815
-0.000427245
-0.000427674
-0.000428102
-0.000428528
-0.000428953
-0.000429377
-0.0004298
-0.000430221
-0.000430642
-0.000431061
-0.000431478
-0.000431895
-0.000432311
-0.000432725
-0.000433138
-0.00043355
-0.00043396
-0.00043437
-0.000434778
-0.000435185
-0.000435591
-0.000435996
-0.0004364
-0.000436803
-0.000437204
-0.000437604
-0.000438004
-0.000438402
-0.000438799
-0.000439195
-0.000439589
-0.000439983
-0.000440375
-0.000440767
-0.000441157
-0.000441546
-0.000441934
-0.000442321
-0.000442707
-0.000443092
-0.000443476
-0.000443859
-0.00044424
-0.000444621
-0.000445
-0.000445379
-0.000445756
-0.000446132
-0.000446507
-0.000446881
-0.000447254
-0.000447626
-0.000447997
-0.000448367
-0.000448736
-0.000449103
-0.00044947
-0.000449835
-0.0004502
-0.000450563
-0.000450926
-0.000451287
-0.000451647
-0.000452006
-0.000452364
-0.000452721
-0.000453077
-0.000453432
-0.000453786
-0.000454139
-0.00045449
-0.000454841
-0.00045519
-0.000455539
-0.000455886
-0.000456232
-0.000456578
-0.000456922
-0.000457265
-0.000457607
-0.000457947
-0.000458287
-0.000458626
-0.000458963
-0.0004593
-0.000459635
-0.000459969
-0.000460303
-0.000460635
-0.000460965
-0.000461295
-0.000461624
-0.000461951
-0.000462278
-0.000462603
-0.000462927
-0.00046325
-0.000463572
-0.000463893
-0.000464212
-0.000464531
-0.000464848
-0.000465164
-0.000465479
-0.000465792
-0.000466105
-0.000466416
-0.000466726
-0.000467035
-0.000467343
-0.000467649
-0.000467954
-0.000468258
-0.000468561
-0.000468863
-0.000469163
-0.000469462
-0.00046976
-0.000470056
-0.000470351
-0.000470645
-0.000470938
-0.000471229
-0.000471519
-0.000471808
-0.000472096
-0.000472382
-0.000472667
-0.00047295
-0.000473232
-0.000473513
-0.000473792
-0.00047407
-0.000474347
-0.000474622
-0.000474896
-0.000475168
-0.000475439
-0.000475709
-0.000475977
-0.000476243
-0.000476509
-0.000476772
-0.000477035
-0.000477295
-0.000477555
-0.000477813
-0.000478069
-0.000478323
-0.000478577
-0.000478828
-0.000479078
-0.000479327
-0.000479574
-0.000479819
-0.000480063
-0.000480305
-0.000480545
-0.000480784
-0.000481021
-0.000481257
-0.000481491
-0.000481723
-0.000481953
-0.000482182
-0.000482409
-0.000482634
-0.000482858
-0.00048308
-0.0004833
-0.000483518
-0.000483734
-0.000483949
-0.000484162
-0.000484372
-0.000484582
-0.000484789
-0.000484994
-0.000485198
-0.000485399
-0.000485599
-0.000485797
-0.000485992
-0.000486186
-0.000486378
-0.000486568
-0.000486756
-0.000486942
-0.000487126
-0.000487307
-0.000487487
-0.000487665
-0.000487841
-0.000488014
-0.000488186
-0.000488355
-0.000488522
-0.000488688
-0.000488851
-0.000489012
-0.00048917
-0.000489327
-0.000489481
-0.000489633
-0.000489783
-0.000489931
-0.000490076
-0.000490219
-0.00049036
-0.000490499
-0.000490635
-0.00049077
-0.000490901
-0.000491031
-0.000491158
-0.000491283
-0.000491405
-0.000491526
-0.000491643
-0.000491759
-0.000491872
-0.000491982
-0.000492091
-0.000492197
-0.0004923
-0.000492401
-0.0004925
-0.000492596
-0.000492689
-0.000492781
-0.00049287
-0.000492956
-0.00049304
-0.000493121
-0.0004932
-0.000493276
-0.00049335
-0.000493422
-0.000493491
-0.000493557
-0.000493621
-0.000493682
-0.000493741
-0.000493798
-0.000493851
-0.000493903
-0.000493951
-0.000493997
-0.000494041
-0.000494082
-0.000494121
-0.000494157
-0.00049419
-0.000494221
-0.000494249
-0.000494275
-0.000494298
-0.000494319
-0.000494337
-0.000494352
-0.000494365
-0.000494375
-0.000494383
-0.000494388
-0.000494391
-0.000494391
-0.000494388
-0.000494383
-0.000494375
-0.000494365
-0.000494352
-0.000494337
-0.000494319
-0.000494298
-0.000494275
-0.000494249
-0.000494221
-0.00049419
-0.000494157
-0.000494121
-0.000494082
-0.000494041
-0.000493997
-0.000493951
-0.000493903
-0.000493851
-0.000493798
-0.000493741
-0.000493682
-0.000493621
-0.000493557
-0.000493491
-0.000493422
-0.00049335
-0.000493276
-0.0004932
-0.000493121
-0.00049304
-0.000492956
-0.00049287
-0.000492781
-0.000492689
-0.000492596
-0.0004925
-0.000492401
-0.0004923
-0.000492197
-0.000492091
-0.000491982
-0.000491872
-0.000491759
-0.000491643
-0.000491526
-0.000491405
-0.000491283
-0.000491158
-0.000491031
-0.000490901
-0.00049077
-0.000490635
-0.000490499
-0.00049036
-0.000490219
-0.000490076
-0.000489931
-0.000489783
-0.000489633
-0.000489481
-0.000489327
-0.00048917
-0.000489012
-0.000488851
-0.000488688
-0.000488522
-0.000488355
-0.000488186
-0.000488014
-0.000487841
-0.000487665
-0.000487487
-0.000487307
-0.000487126
-0.000486942
-0.000486756
-0.000486568
-0.000486378
-0.000486186
-0.000485992
-0.000485797
-0.000485599
-0.000485399
-0.000485198
-0.000484994
-0.000484789
-0.000484582
-0.000484373
-0.000484162
-0.000483949
-0.000483734
-0.000483518
-0.0004833
-0.00048308
-0.000482858
-0.000482634
-0.000482409
-0.000482182
-0.000481953
-0.000481723
-0.000481491
-0.000481257
-0.000481021
-0.000480784
-0.000480545
-0.000480305
-0.000480063
-0.000479819
-0.000479574
-0.000479327
-0.000479078
-0.000478828
-0.000478577
-0.000478324
-0.000478069
-0.000477813
-0.000477555
-0.000477296
-0.000477035
-0.000476772
-0.000476509
-0.000476244
-0.000475977
-0.000475709
-0.000475439
-0.000475168
-0.000474896
-0.000474622
-0.000474347
-0.00047407
-0.000473792
-0.000473513
-0.000473232
-0.00047295
-0.000472667
-0.000472382
-0.000472096
-0.000471808
-0.000471519
-0.000471229
-0.000470938
-0.000470645
-0.000470351
-0.000470056
-0.00046976
-0.000469462
-0.000469163
-0.000468863
-0.000468561
-0.000468258
-0.000467954
-0.000467649
-0.000467343
-0.000467035
-0.000466726
-0.000466416
-0.000466105
-0.000465792
-0.000465479
-0.000465164
-0.000464848
-0.000464531
-0.000464212
-0.000463893
-0.000463572
-0.00046325
-0.000462927
-0.000462603
-0.000462278
-0.000461951
-0.000461624
-0.000461295
-0.000460965
-0.000460635
-0.000460303
-0.000459969
-0.000459635
-0.0004593
-0.000458963
-0.000458626
-0.000458287
-0.000457947
-0.000457607
-0.000457265
-0.000456922
-0.000456578
-0.000456232
-0.000455886
-0.000455539
-0.00045519
-0.000454841
-0.00045449
-0.000454139
-0.000453786
-0.000453432
-0.000453077
-0.000452721
-0.000452364
-0.000452006
-0.000451647
-0.000451287
-0.000450926
-0.000450563
-0.0004502
-0.000449835
-0.00044947
-0.000449103
-0.000448736
-0.000448367
-0.000447997
-0.000447626
-0.000447254
-0.000446881
-0.000446507
-0.000446132
-0.000445756
-0.000445379
-0.000445
-0.000444621
-0.00044424
-0.000443859
-0.000443476
-0.000443092
-0.000442707
-0.000442321
-0.000441934
-0.000441546
-0.000441157
-0.000440767
-0.000440375
-0.000439983
-0.000439589
-0.000439195
-0.000438799
-0.000438402
-0.000438004
-0.000437604
-0.000437204
-0.000436803
-0.0004364
-0.000435996
-0.000435591
-0.000435185
-0.000434778
-0.00043437
-0.00043396
-0.00043355
-0.000433138
-0.000432725
-0.00043231
-0.000431895
-0.000431478
-0.000431061
-0.000430642
-0.000430221
-0.0004298
-0.000429377
-0.000428953
-0.000428528
-0.000428102
-0.000427674
-0.000427245
-0.000426815
-0.000426383
-0.00042595
-0.000425516
-0.000425081
-0.000424644
-0.000424206
-0.000423767
-0.000423326
-0.000422884
-0.00042244
-0.000421995
-0.000421549
-0.000421102
-0.000420653
-0.000420202
-0.00041975
-0.000419297
-0.000418842
-0.000418386
-0.000417929
-0.00041747
-0.000417009
-0.000416547
-0.000416083
-0.000415618
-0.000415151
-0.000414683
-0.000414213
-0.000413742
-0.000413269
-0.000412794
-0.000412318
-0.00041184
-0.00041136
-0.000410879
-0.000410396
-0.000409911
-0.000409425
-0.000408937
-0.000408447
-0.000407955
-0.000407462
-0.000406967
-0.00040647
-0.000405971
-0.00040547
-0.000404967
-0.000404463
-0.000403956
-0.000403448
-0.000402937
-0.000402425
-0.00040191
-0.000401394
-0.000400875
-0.000400355
-0.000399832
-0.000399307
-0.00039878
-0.000398251
-0.000397719
-0.000397186
-0.00039665
-0.000396112
-0.000395571
-0.000395028
-0.000394483
-0.000393935
-0.000393385
-0.000392833
-0.000392278
-0.00039172
-0.00039116
-0.000390597
-0.000390032
-0.000389464
-0.000388894
-0.00038832
-0.000387744
-0.000387165
-0.000386583
-0.000385999
-0.000385411
-0.000384821
-0.000384227
-0.000383631
-0.000383031
-0.000382428
-0.000381822
-0.000381213
-0.000380601
-0.000379985
-0.000379366
-0.000378743
-0.000378117
-0.000377488
-0.000376855
-0.000376218
-0.000375578
-0.000374934
-0.000374286
-0.000373634
-0.000372978
-0.000372319
-0.000371655
-0.000370987
-0.000370315
-0.000369639
-0.000368959
-0.000368274
-0.000367585
-0.000366891
-0.000366192
-0.000365489
-0.000364781
-0.000364069
-0.000363351
-0.000362628
-0.0003619
-0.000361167
-0.000360429
-0.000359685
-0.000358936
-0.000358182
-0.000357421
-0.000356655
-0.000355883
-0.000355104
-0.00035432
-0.000353529
-0.000352732
-0.000351929
-0.000351119
-0.000350302
-0.000349478
-0.000348647
-0.000347809
-0.000346964
-0.000346111
-0.00034525
-0.000344382
-0.000343505
-0.00034262
-0.000341727
-0.000340826
-0.000339915
-0.000338996
-0.000338068
-0.00033713
-0.000336183
-0.000335226
-0.000334258
-0.000333281
-0.000332293
-0.000331294
-0.000330284
-0.000329263
-0.00032823
-0.000327185
-0.000326127
-0.000325057
-0.000323975
-0.000322878
-0.000321768
-0.000320644
-0.000319506
-0.000318353
-0.000317184
-0.000316
-0.000314799
-0.000313581
-0.000312346
-0.000311093
-0.000309822
-0.000308532
-0.000307222
-0.000305892
-0.000304541
-0.000303167
-0.000301772
-0.000300353
-0.000298909
-0.000297441
-0.000295946
-0.000294425
-0.000292875
-0.000291295
-0.000289685
-0.000288043
-0.000286368
-0.000284658
-0.000282912
-0.000281127
-0.000279303
-0.000277437
-0.000275527
-0.000273571
-0.000271567
-0.000269511
-0.000267401
-0.000265234
-0.000263006
-0.000260714
-0.000258354
-0.000255921
-0.000253411
-0.000250818
-0.000248135
-0.000245357
-0.000242475
-0.000239482
-0.000236368
-0.000233122
-0.000229731
-0.000226182
-0.000222458
-0.00021854
-0.000214406
-0.000210029
-0.000205376
-0.00020041
-0.000195081
-0.00018933
-0.000183081
-0.000176234
-0.000168655
-0.000160163
-0.000150496
-0.000139266
-0.000125866
-0.000109297
-8.79028e-05
-5.94488e-05
-2.354e-05
)
;
    }
    bot_wall
    {
        type            calculated;
        value           uniform 0;
    }
    outlet
    {
        type            cyclic;
        value           nonuniform List<scalar> 
1000
(
2.354e-05
5.94489e-05
8.79028e-05
0.000109297
0.000125866
0.000139266
0.000150496
0.000160163
0.000168655
0.000176234
0.000183081
0.00018933
0.000195081
0.00020041
0.000205376
0.000210029
0.000214406
0.00021854
0.000222458
0.000226182
0.000229731
0.000233122
0.000236368
0.000239482
0.000242475
0.000245357
0.000248135
0.000250818
0.000253411
0.000255922
0.000258354
0.000260714
0.000263006
0.000265234
0.000267401
0.000269511
0.000271567
0.000273571
0.000275527
0.000277437
0.000279303
0.000281127
0.000282912
0.000284658
0.000286368
0.000288043
0.000289685
0.000291295
0.000292875
0.000294425
0.000295946
0.000297441
0.000298909
0.000300353
0.000301772
0.000303167
0.000304541
0.000305892
0.000307222
0.000308532
0.000309822
0.000311094
0.000312346
0.000313581
0.000314799
0.000316
0.000317184
0.000318353
0.000319506
0.000320645
0.000321769
0.000322878
0.000323975
0.000325057
0.000326127
0.000327185
0.00032823
0.000329263
0.000330284
0.000331294
0.000332293
0.000333281
0.000334258
0.000335226
0.000336183
0.00033713
0.000338068
0.000338996
0.000339916
0.000340826
0.000341727
0.00034262
0.000343505
0.000344382
0.00034525
0.000346111
0.000346964
0.000347809
0.000348647
0.000349478
0.000350302
0.000351119
0.000351929
0.000352733
0.00035353
0.00035432
0.000355104
0.000355883
0.000356655
0.000357421
0.000358182
0.000358936
0.000359686
0.000360429
0.000361167
0.0003619
0.000362628
0.000363351
0.000364069
0.000364781
0.000365489
0.000366192
0.000366891
0.000367585
0.000368274
0.000368959
0.000369639
0.000370315
0.000370987
0.000371655
0.000372319
0.000372978
0.000373634
0.000374286
0.000374934
0.000375578
0.000376218
0.000376855
0.000377488
0.000378117
0.000378743
0.000379366
0.000379985
0.000380601
0.000381213
0.000381822
0.000382428
0.000383031
0.000383631
0.000384227
0.000384821
0.000385411
0.000385999
0.000386583
0.000387165
0.000387744
0.00038832
0.000388894
0.000389464
0.000390032
0.000390598
0.00039116
0.00039172
0.000392278
0.000392833
0.000393385
0.000393935
0.000394483
0.000395028
0.000395571
0.000396112
0.00039665
0.000397186
0.000397719
0.000398251
0.00039878
0.000399307
0.000399832
0.000400355
0.000400875
0.000401394
0.00040191
0.000402425
0.000402937
0.000403448
0.000403956
0.000404463
0.000404967
0.00040547
0.000405971
0.00040647
0.000406967
0.000407462
0.000407956
0.000408447
0.000408937
0.000409425
0.000409912
0.000410396
0.000410879
0.00041136
0.00041184
0.000412318
0.000412794
0.000413269
0.000413742
0.000414213
0.000414683
0.000415151
0.000415618
0.000416083
0.000416547
0.000417009
0.00041747
0.000417929
0.000418386
0.000418843
0.000419297
0.00041975
0.000420202
0.000420653
0.000421102
0.000421549
0.000421996
0.00042244
0.000422884
0.000423326
0.000423767
0.000424206
0.000424644
0.000425081
0.000425516
0.00042595
0.000426383
0.000426815
0.000427245
0.000427674
0.000428102
0.000428528
0.000428953
0.000429377
0.0004298
0.000430221
0.000430642