/*--------------------------------*- C++ -*----------------------------------*\
| =========                 |                                                 |
| \\      /  F ield         | OpenFOAM: The Open Source CFD Toolbox           |
|  \\    /   O peration     | Version:  2406                                  |
|   \\  /    A nd           | Website:  www.openfoam.com                      |
|    \\/     M anipulation  |                                                 |
\*---------------------------------------------------------------------------*/
FoamFile
{
    version     2.0;
    format      ascii;
    arch        "LSB;label=32;scalar=64";
    class       volVectorField;
    location    "20.33";
    object      U;
}
// * * * * * * * * * * * * * * * * * * * * * * * * * * * * * * * * * * * * * //

dimensions      [0 1 -1 0 0 0 0];

internalField   nonuniform List<vector> 
1000
(
(0.2354 -1.72421e-18 0)
(0.594489 -2.85757e-18 0)
(0.879028 -2.93135e-18 0)
(1.09297 -2.78155e-18 0)
(1.25866 -2.71796e-18 0)
(1.39266 -2.63849e-18 0)
(1.50496 -2.53508e-18 0)
(1.60163 -2.47962e-18 0)
(1.68655 -2.40967e-18 0)
(1.76234 -2.23711e-18 0)
(1.83081 -2.29837e-18 0)
(1.8933 -2.4585e-18 0)
(1.95081 -2.37981e-18 0)
(2.0041 -2.36166e-18 0)
(2.05376 -2.51006e-18 0)
(2.10029 -2.64851e-18 0)
(2.14406 -2.70908e-18 0)
(2.1854 -2.72805e-18 0)
(2.22458 -2.75221e-18 0)
(2.26182 -2.77384e-18 0)
(2.29731 -2.79309e-18 0)
(2.33122 -2.81019e-18 0)
(2.36368 -2.82535e-18 0)
(2.39482 -2.8388e-18 0)
(2.42475 -2.8507e-18 0)
(2.45357 -2.86122e-18 0)
(2.48135 -2.87046e-18 0)
(2.50818 -2.87852e-18 0)
(2.53411 -2.88549e-18 0)
(2.55922 -2.89141e-18 0)
(2.58354 -2.89636e-18 0)
(2.60714 -2.90035e-18 0)
(2.63006 -2.90343e-18 0)
(2.65234 -2.90563e-18 0)
(2.67401 -2.90697e-18 0)
(2.69511 -2.90746e-18 0)
(2.71567 -2.90714e-18 0)
(2.73571 -2.906e-18 0)
(2.75527 -2.90408e-18 0)
(2.77437 -2.90138e-18 0)
(2.79303 -2.89792e-18 0)
(2.81127 -2.89371e-18 0)
(2.82912 -2.88875e-18 0)
(2.84658 -2.88307e-18 0)
(2.86368 -2.87667e-18 0)
(2.88043 -2.86956e-18 0)
(2.89685 -2.86176e-18 0)
(2.91295 -2.85327e-18 0)
(2.92875 -2.84411e-18 0)
(2.94425 -2.83428e-18 0)
(2.95946 -2.82379e-18 0)
(2.97441 -2.81265e-18 0)
(2.98909 -2.80087e-18 0)
(3.00353 -2.78846e-18 0)
(3.01772 -2.77543e-18 0)
(3.03167 -2.76178e-18 0)
(3.04541 -2.74753e-18 0)
(3.05892 -2.73267e-18 0)
(3.07222 -2.71721e-18 0)
(3.08532 -2.70117e-18 0)
(3.09822 -2.68454e-18 0)
(3.11094 -2.66734e-18 0)
(3.12346 -2.64956e-18 0)
(3.13581 -2.63121e-18 0)
(3.14799 -2.61229e-18 0)
(3.16 -2.59282e-18 0)
(3.17184 -2.57278e-18 0)
(3.18353 -2.55219e-18 0)
(3.19506 -2.53106e-18 0)
(3.20645 -2.50937e-18 0)
(3.21769 -2.48714e-18 0)
(3.22878 -2.46437e-18 0)
(3.23975 -2.44105e-18 0)
(3.25057 -2.41721e-18 0)
(3.26127 -2.39283e-18 0)
(3.27185 -2.36793e-18 0)
(3.2823 -2.3425e-18 0)
(3.29263 -2.31656e-18 0)
(3.30284 -2.2901e-18 0)
(3.31294 -2.26314e-18 0)
(3.32293 -2.23569e-18 0)
(3.33281 -2.20775e-18 0)
(3.34258 -2.17934e-18 0)
(3.35226 -2.15047e-18 0)
(3.36183 -2.12116e-18 0)
(3.3713 -2.09143e-18 0)
(3.38068 -2.0613e-18 0)
(3.38996 -2.03079e-18 0)
(3.39916 -1.99994e-18 0)
(3.40826 -1.96878e-18 0)
(3.41727 -1.93735e-18 0)
(3.4262 -1.9057e-18 0)
(3.43505 -1.87387e-18 0)
(3.44382 -1.84192e-18 0)
(3.4525 -1.80992e-18 0)
(3.46111 -1.77794e-18 0)
(3.46964 -1.74605e-18 0)
(3.47809 -1.71434e-18 0)
(3.48647 -1.68292e-18 0)
(3.49478 -1.65187e-18 0)
(3.50302 -1.6213e-18 0)
(3.51119 -1.59135e-18 0)
(3.51929 -1.56213e-18 0)
(3.52733 -1.53377e-18 0)
(3.5353 -1.50641e-18 0)
(3.5432 -1.4802e-18 0)
(3.55104 -1.45528e-18 0)
(3.55883 -1.43179e-18 0)
(3.56655 -1.40989e-18 0)
(3.57421 -1.38973e-18 0)
(3.58182 -1.37144e-18 0)
(3.58936 -1.35519e-18 0)
(3.59686 -1.34111e-18 0)
(3.60429 -1.32936e-18 0)
(3.61167 -1.32009e-18 0)
(3.619 -1.31187e-18 0)
(3.62628 -1.30635e-18 0)
(3.63351 -1.30355e-18 0)
(3.64069 -1.30361e-18 0)
(3.64781 -1.30679e-18 0)
(3.65489 -1.31191e-18 0)
(3.66192 -1.31924e-18 0)
(3.66891 -1.32889e-18 0)
(3.67585 -1.34178e-18 0)
(3.68274 -1.35806e-18 0)
(3.68959 -1.3779e-18 0)
(3.69639 -1.40144e-18 0)
(3.70315 -1.42894e-18 0)
(3.70987 -1.45994e-18 0)
(3.71655 -1.49478e-18 0)
(3.72319 -1.53382e-18 0)
(3.72978 -1.57749e-18 0)
(3.73634 -1.62633e-18 0)
(3.74286 -1.68106e-18 0)
(3.74934 -1.7434e-18 0)
(3.75578 -1.81481e-18 0)
(3.76218 -1.89745e-18 0)
(3.76855 -1.99441e-18 0)
(3.77488 -2.11296e-18 0)
(3.78117 -2.19717e-18 0)
(3.78743 -2.00909e-18 0)
(3.79366 -1.82264e-18 0)
(3.79985 -1.90719e-18 0)
(3.80601 -2.02459e-18 0)
(3.81213 -2.11916e-18 0)
(3.81822 -2.19889e-18 0)
(3.82428 -2.26625e-18 0)
(3.83031 -2.32408e-18 0)
(3.83631 -2.37392e-18 0)
(3.84227 -2.41687e-18 0)
(3.84821 -2.45369e-18 0)
(3.85411 -2.48495e-18 0)
(3.85999 -2.51102e-18 0)
(3.86583 -2.53221e-18 0)
(3.87165 -2.54881e-18 0)
(3.87744 -2.56104e-18 0)
(3.8832 -2.56913e-18 0)
(3.88894 -2.57327e-18 0)
(3.89464 -2.57364e-18 0)
(3.90032 -2.57042e-18 0)
(3.90598 -2.56377e-18 0)
(3.9116 -2.55388e-18 0)
(3.9172 -2.54093e-18 0)
(3.92278 -2.52509e-18 0)
(3.92833 -2.50593e-18 0)
(3.93385 -2.4836e-18 0)
(3.93935 -2.45823e-18 0)
(3.94483 -2.43193e-18 0)
(3.95028 -2.38085e-18 0)
(3.95571 -2.29804e-18 0)
(3.96112 -2.30364e-18 0)
(3.9665 -2.1659e-18 0)
(3.97186 -2.04783e-18 0)
(3.97719 -2.111e-18 0)
(3.98251 -2.10484e-18 0)
(3.9878 -2.10151e-18 0)
(3.99307 -2.09594e-18 0)
(3.99832 -2.08888e-18 0)
(4.00355 -2.08037e-18 0)
(4.00875 -2.07046e-18 0)
(4.01394 -2.05912e-18 0)
(4.0191 -2.04632e-18 0)
(4.02425 -2.03203e-18 0)
(4.02937 -2.01621e-18 0)
(4.03448 -1.99879e-18 0)
(4.03956 -1.97974e-18 0)
(4.04463 -1.95904e-18 0)
(4.04967 -1.93669e-18 0)
(4.0547 -1.91339e-18 0)
(4.05971 -1.88941e-18 0)
(4.0647 -1.86527e-18 0)
(4.06967 -1.84185e-18 0)
(4.07462 -1.82052e-18 0)
(4.07956 -1.80257e-18 0)
(4.08447 -1.78998e-18 0)
(4.08937 -1.78537e-18 0)
(4.09425 -1.79081e-18 0)
(4.09912 -1.80743e-18 0)
(4.10396 -1.83472e-18 0)
(4.10879 -1.87048e-18 0)
(4.1136 -1.91226e-18 0)
(4.1184 -1.97124e-18 0)
(4.12318 -2.14669e-18 0)
(4.12794 -2.19811e-18 0)
(4.13269 -2.24925e-18 0)
(4.13742 -2.42309e-18 0)
(4.14213 -2.48038e-18 0)
(4.14683 -2.52041e-18 0)
(4.15151 -2.55476e-18 0)
(4.15618 -2.58039e-18 0)
(4.16083 -2.59514e-18 0)
(4.16547 -2.59855e-18 0)
(4.17009 -2.59181e-18 0)
(4.1747 -2.57694e-18 0)
(4.17929 -2.55649e-18 0)
(4.18386 -2.5324e-18 0)
(4.18843 -2.50591e-18 0)
(4.19297 -2.47831e-18 0)
(4.1975 -2.45043e-18 0)
(4.20202 -2.42271e-18 0)
(4.20653 -2.39591e-18 0)
(4.21102 -2.37003e-18 0)
(4.21549 -2.34498e-18 0)
(4.21996 -2.3206e-18 0)
(4.2244 -2.29724e-18 0)
(4.22884 -2.27468e-18 0)
(4.23326 -2.25274e-18 0)
(4.23767 -2.23127e-18 0)
(4.24206 -2.21015e-18 0)
(4.24644 -2.18929e-18 0)
(4.25081 -2.16864e-18 0)
(4.25516 -2.14815e-18 0)
(4.2595 -2.12782e-18 0)
(4.26383 -2.10762e-18 0)
(4.26815 -2.08758e-18 0)
(4.27245 -2.0677e-18 0)
(4.27674 -2.04799e-18 0)
(4.28102 -2.02846e-18 0)
(4.28528 -2.00915e-18 0)
(4.28953 -1.99005e-18 0)
(4.29377 -1.97118e-18 0)
(4.298 -1.95256e-18 0)
(4.30221 -1.93419e-18 0)
(4.30642 -1.91607e-18 0)
(4.31061 -1.89823e-18 0)
(4.31478 -1.88065e-18 0)
(4.31895 -1.86334e-18 0)
(4.32311 -1.84632e-18 0)
(4.32725 -1.82956e-18 0)
(4.33138 -1.81309e-18 0)
(4.3355 -1.7969e-18 0)
(4.3396 -1.78098e-18 0)
(4.3437 -1.76535e-18 0)
(4.34778 -1.75e-18 0)
(4.35185 -1.73494e-18 0)
(4.35591 -1.72016e-18 0)
(4.35996 -1.70566e-18 0)
(4.364 -1.69146e-18 0)
(4.36803 -1.67755e-18 0)
(4.37204 -1.66392e-18 0)
(4.37604 -1.6506e-18 0)
(4.38004 -1.63757e-18 0)
(4.38402 -1.62483e-18 0)
(4.38799 -1.6124e-18 0)
(4.39195 -1.60027e-18 0)
(4.39589 -1.58844e-18 0)
(4.39983 -1.57692e-18 0)
(4.40375 -1.5657e-18 0)
(4.40767 -1.55478e-18 0)
(4.41157 -1.54418e-18 0)
(4.41546 -1.53387e-18 0)
(4.41934 -1.52387e-18 0)
(4.42321 -1.51418e-18 0)
(4.42707 -1.50479e-18 0)
(4.43092 -1.4957e-18 0)
(4.43476 -1.48691e-18 0)
(4.43859 -1.47841e-18 0)
(4.4424 -1.47021e-18 0)
(4.44621 -1.46231e-18 0)
(4.45 -1.45469e-18 0)
(4.45379 -1.44736e-18 0)
(4.45756 -1.44031e-18 0)
(4.46132 -1.43355e-18 0)
(4.46507 -1.42705e-18 0)
(4.46881 -1.42083e-18 0)
(4.47254 -1.41487e-18 0)
(4.47626 -1.40918e-18 0)
(4.47997 -1.40374e-18 0)
(4.48367 -1.39855e-18 0)
(4.48736 -1.39362e-18 0)
(4.49103 -1.38892e-18 0)
(4.4947 -1.38446e-18 0)
(4.49835 -1.38024e-18 0)
(4.502 -1.37624e-18 0)
(4.50563 -1.37246e-18 0)
(4.50926 -1.3689e-18 0)
(4.51287 -1.36555e-18 0)
(4.51647 -1.36241e-18 0)
(4.52006 -1.35946e-18 0)
(4.52364 -1.35671e-18 0)
(4.52721 -1.35415e-18 0)
(4.53077 -1.35177e-18 0)
(4.53432 -1.34957e-18 0)
(4.53786 -1.34754e-18 0)
(4.54139 -1.34568e-18 0)
(4.5449 -1.34397e-18 0)
(4.54841 -1.34243e-18 0)
(4.5519 -1.34103e-18 0)
(4.55539 -1.33978e-18 0)
(4.55886 -1.33866e-18 0)
(4.56232 -1.33768e-18 0)
(4.56578 -1.33683e-18 0)
(4.56922 -1.3361e-18 0)
(4.57265 -1.33549e-18 0)
(4.57607 -1.33499e-18 0)
(4.57947 -1.3346e-18 0)
(4.58287 -1.33431e-18 0)
(4.58626 -1.33412e-18 0)
(4.58963 -1.33402e-18 0)
(4.593 -1.334e-18 0)
(4.59635 -1.33407e-18 0)
(4.59969 -1.33422e-18 0)
(4.60303 -1.33444e-18 0)
(4.60635 -1.33473e-18 0)
(4.60965 -1.33508e-18 0)
(4.61295 -1.3355e-18 0)
(4.61624 -1.33597e-18 0)
(4.61951 -1.33649e-18 0)
(4.62278 -1.33705e-18 0)
(4.62603 -1.33766e-18 0)
(4.62927 -1.33831e-18 0)
(4.6325 -1.33899e-18 0)
(4.63572 -1.33971e-18 0)
(4.63893 -1.34045e-18 0)
(4.64212 -1.34122e-18 0)
(4.64531 -1.342e-18 0)
(4.64848 -1.3428e-18 0)
(4.65164 -1.34362e-18 0)
(4.65479 -1.34444e-18 0)
(4.65792 -1.34528e-18 0)
(4.66105 -1.34611e-18 0)
(4.66416 -1.34695e-18 0)
(4.66726 -1.34778e-18 0)
(4.67035 -1.34861e-18 0)
(4.67343 -1.34943e-18 0)
(4.67649 -1.35024e-18 0)
(4.67954 -1.35103e-18 0)
(4.68258 -1.35181e-18 0)
(4.68561 -1.35258e-18 0)
(4.68863 -1.35332e-18 0)
(4.69163 -1.35404e-18 0)
(4.69462 -1.35473e-18 0)
(4.6976 -1.35539e-18 0)
(4.70056 -1.35603e-18 0)
(4.70351 -1.35663e-18 0)
(4.70645 -1.3572e-18 0)
(4.70938 -1.35774e-18 0)
(4.71229 -1.35824e-18 0)
(4.71519 -1.3587e-18 0)
(4.71808 -1.35912e-18 0)
(4.72096 -1.3595e-18 0)
(4.72382 -1.35983e-18 0)
(4.72667 -1.36012e-18 0)
(4.7295 -1.36036e-18 0)
(4.73232 -1.36056e-18 0)
(4.73513 -1.36071e-18 0)
(4.73792 -1.36081e-18 0)
(4.7407 -1.36085e-18 0)
(4.74347 -1.36085e-18 0)
(4.74622 -1.36079e-18 0)
(4.74896 -1.36068e-18 0)
(4.75168 -1.36052e-18 0)
(4.75439 -1.3603e-18 0)
(4.75709 -1.36002e-18 0)
(4.75977 -1.35968e-18 0)
(4.76243 -1.35929e-18 0)
(4.76509 -1.35884e-18 0)
(4.76772 -1.35833e-18 0)
(4.77035 -1.35776e-18 0)
(4.77295 -1.35714e-18 0)
(4.77555 -1.35645e-18 0)
(4.77813 -1.3557e-18 0)
(4.78069 -1.35489e-18 0)
(4.78323 -1.35402e-18 0)
(4.78577 -1.35309e-18 0)
(4.78828 -1.35209e-18 0)
(4.79078 -1.35104e-18 0)
(4.79327 -1.34992e-18 0)
(4.79574 -1.34874e-18 0)
(4.79819 -1.34749e-18 0)
(4.80063 -1.34619e-18 0)
(4.80305 -1.34482e-18 0)
(4.80545 -1.34339e-18 0)
(4.80784 -1.3419e-18 0)
(4.81021 -1.34034e-18 0)
(4.81257 -1.33873e-18 0)
(4.81491 -1.33705e-18 0)
(4.81723 -1.33531e-18 0)
(4.81953 -1.33351e-18 0)
(4.82182 -1.33164e-18 0)
(4.82409 -1.32972e-18 0)
(4.82634 -1.32773e-18 0)
(4.82858 -1.32569e-18 0)
(4.8308 -1.32358e-18 0)
(4.833 -1.32141e-18 0)
(4.83518 -1.31919e-18 0)
(4.83734 -1.3169e-18 0)
(4.83949 -1.31456e-18 0)
(4.84162 -1.31215e-18 0)
(4.84372 -1.30969e-18 0)
(4.84582 -1.30717e-18 0)
(4.84789 -1.3046e-18 0)
(4.84994 -1.30196e-18 0)
(4.85198 -1.29928e-18 0)
(4.85399 -1.29653e-18 0)
(4.85599 -1.29373e-18 0)
(4.85797 -1.29088e-18 0)
(4.85992 -1.28797e-18 0)
(4.86186 -1.28501e-18 0)
(4.86378 -1.28199e-18 0)
(4.86568 -1.27893e-18 0)
(4.86756 -1.27581e-18 0)
(4.86942 -1.27264e-18 0)
(4.87126 -1.26942e-18 0)
(4.87307 -1.26615e-18 0)
(4.87487 -1.26283e-18 0)
(4.87665 -1.25946e-18 0)
(4.87841 -1.25604e-18 0)
(4.88014 -1.25258e-18 0)
(4.88186 -1.24907e-18 0)
(4.88355 -1.24552e-18 0)
(4.88522 -1.24191e-18 0)
(4.88688 -1.23827e-18 0)
(4.88851 -1.23458e-18 0)
(4.89012 -1.23085e-18 0)
(4.8917 -1.22707e-18 0)
(4.89327 -1.22326e-18 0)
(4.89481 -1.2194e-18 0)
(4.89633 -1.2155e-18 0)
(4.89783 -1.21156e-18 0)
(4.89931 -1.20759e-18 0)
(4.90076 -1.20357e-18 0)
(4.90219 -1.19952e-18 0)
(4.9036 -1.19543e-18 0)
(4.90499 -1.19131e-18 0)
(4.90635 -1.18715e-18 0)
(4.9077 -1.18295e-18 0)
(4.90901 -1.17873e-18 0)
(4.91031 -1.17447e-18 0)
(4.91158 -1.17017e-18 0)
(4.91283 -1.16585e-18 0)
(4.91405 -1.16149e-18 0)
(4.91526 -1.15711e-18 0)
(4.91643 -1.15269e-18 0)
(4.91759 -1.14825e-18 0)
(4.91872 -1.14378e-18 0)
(4.91982 -1.13928e-18 0)
(4.92091 -1.13475e-18 0)
(4.92197 -1.1302e-18 0)
(4.923 -1.12563e-18 0)
(4.92401 -1.12103e-18 0)
(4.925 -1.1164e-18 0)
(4.92596 -1.11176e-18 0)
(4.92689 -1.10709e-18 0)
(4.92781 -1.1024e-18 0)
(4.9287 -1.09769e-18 0)
(4.92956 -1.09296e-18 0)
(4.9304 -1.08821e-18 0)
(4.93121 -1.08344e-18 0)
(4.932 -1.07865e-18 0)
(4.93276 -1.07384e-18 0)
(4.9335 -1.06902e-18 0)
(4.93422 -1.06418e-18 0)
(4.93491 -1.05933e-18 0)
(4.93557 -1.05446e-18 0)
(4.93621 -1.04957e-18 0)
(4.93682 -1.04468e-18 0)
(4.93741 -1.03977e-18 0)
(4.93798 -1.03484e-18 0)
(4.93851 -1.02991e-18 0)
(4.93903 -1.02496e-18 0)
(4.93951 -1.02001e-18 0)
(4.93997 -1.01504e-18 0)
(4.94041 -1.01006e-18 0)
(4.94082 -1.00508e-18 0)
(4.94121 -1.00009e-18 0)
(4.94157 -9.95085e-19 0)
(4.9419 -9.90076e-19 0)
(4.94221 -9.8506e-19 0)
(4.94249 -9.80038e-19 0)
(4.94275 -9.75011e-19 0)
(4.94298 -9.69978e-19 0)
(4.94319 -9.6494e-19 0)
(4.94337 -9.59899e-19 0)
(4.94352 -9.54853e-19 0)
(4.94365 -9.49805e-19 0)
(4.94375 -9.44753e-19 0)
(4.94383 -9.397e-19 0)
(4.94388 -9.34644e-19 0)
(4.94391 -9.29588e-19 0)
(4.94391 -9.2453e-19 0)
(4.94388 -9.19472e-19 0)
(4.94383 -9.14415e-19 0)
(4.94375 -9.09357e-19 0)
(4.94365 -9.04301e-19 0)
(4.94352 -8.99246e-19 0)
(4.94337 -8.94193e-19 0)
(4.94319 -8.89142e-19 0)
(4.94298 -8.84093e-19 0)
(4.94275 -8.79048e-19 0)
(4.94249 -8.74006e-19 0)
(4.94221 -8.68968e-19 0)
(4.9419 -8.63934e-19 0)
(4.94157 -8.58905e-19 0)
(4.94121 -8.53881e-19 0)
(4.94082 -8.48862e-19 0)
(4.94041 -8.43849e-19 0)
(4.93997 -8.38842e-19 0)
(4.93951 -8.33842e-19 0)
(4.93903 -8.28848e-19 0)
(4.93851 -8.23862e-19 0)
(4.93798 -8.18884e-19 0)
(4.93741 -8.13913e-19 0)
(4.93682 -8.08951e-19 0)
(4.93621 -8.03997e-19 0)
(4.93557 -7.99052e-19 0)
(4.93491 -7.94117e-19 0)
(4.93422 -7.89191e-19 0)
(4.9335 -7.84275e-19 0)
(4.93276 -7.79369e-19 0)
(4.932 -7.74474e-19 0)
(4.93121 -7.6959e-19 0)
(4.9304 -7.64717e-19 0)
(4.92956 -7.59856e-19 0)
(4.9287 -7.55006e-19 0)
(4.92781 -7.50169e-19 0)
(4.92689 -7.45344e-19 0)
(4.92596 -7.40532e-19 0)
(4.925 -7.35733e-19 0)
(4.92401 -7.30947e-19 0)
(4.923 -7.26174e-19 0)
(4.92197 -7.21416e-19 0)
(4.92091 -7.16671e-19 0)
(4.91982 -7.11941e-19 0)
(4.91872 -7.07225e-19 0)
(4.91759 -7.02525e-19 0)
(4.91643 -6.97839e-19 0)
(4.91526 -6.93169e-19 0)
(4.91405 -6.88515e-19 0)
(4.91283 -6.83876e-19 0)
(4.91158 -6.79254e-19 0)
(4.91031 -6.74648e-19 0)
(4.90901 -6.70058e-19 0)
(4.9077 -6.65485e-19 0)
(4.90635 -6.60929e-19 0)
(4.90499 -6.56391e-19 0)
(4.9036 -6.51869e-19 0)
(4.90219 -6.47366e-19 0)
(4.90076 -6.4288e-19 0)
(4.89931 -6.38412e-19 0)
(4.89783 -6.33962e-19 0)
(4.89633 -6.29531e-19 0)
(4.89481 -6.25118e-19 0)
(4.89327 -6.20724e-19 0)
(4.8917 -6.16349e-19 0)
(4.89012 -6.11993e-19 0)
(4.88851 -6.07656e-19 0)
(4.88688 -6.03339e-19 0)
(4.88522 -5.99041e-19 0)
(4.88355 -5.94762e-19 0)
(4.88186 -5.90504e-19 0)
(4.88014 -5.86265e-19 0)
(4.87841 -5.82047e-19 0)
(4.87665 -5.77848e-19 0)
(4.87487 -5.7367e-19 0)
(4.87307 -5.69512e-19 0)
(4.87126 -5.65375e-19 0)
(4.86942 -5.61259e-19 0)
(4.86756 -5.57163e-19 0)
(4.86568 -5.53088e-19 0)
(4.86378 -5.49034e-19 0)
(4.86186 -5.45001e-19 0)
(4.85992 -5.40989e-19 0)
(4.85797 -5.36998e-19 0)
(4.85599 -5.33028e-19 0)
(4.85399 -5.2908e-19 0)
(4.85198 -5.25153e-19 0)
(4.84994 -5.21247e-19 0)
(4.84789 -5.17363e-19 0)
(4.84582 -5.135e-19 0)
(4.84373 -5.09659e-19 0)
(4.84162 -5.0584e-19 0)
(4.83949 -5.02042e-19 0)
(4.83734 -4.98266e-19 0)
(4.83518 -4.94511e-19 0)
(4.833 -4.90779e-19 0)
(4.8308 -4.87068e-19 0)
(4.82858 -4.83379e-19 0)
(4.82634 -4.79711e-19 0)
(4.82409 -4.76065e-19 0)
(4.82182 -4.72442e-19 0)
(4.81953 -4.6884e-19 0)
(4.81723 -4.65259e-19 0)
(4.81491 -4.61701e-19 0)
(4.81257 -4.58164e-19 0)
(4.81021 -4.54649e-19 0)
(4.80784 -4.51156e-19 0)
(4.80545 -4.47685e-19 0)
(4.80305 -4.44235e-19 0)
(4.80063 -4.40807e-19 0)
(4.79819 -4.374e-19 0)
(4.79574 -4.34016e-19 0)
(4.79327 -4.30653e-19 0)
(4.79078 -4.27311e-19 0)
(4.78828 -4.23991e-19 0)
(4.78577 -4.20693e-19 0)
(4.78324 -4.17416e-19 0)
(4.78069 -4.1416e-19 0)
(4.77813 -4.10926e-19 0)
(4.77555 -4.07713e-19 0)
(4.77296 -4.04522e-19 0)
(4.77035 -4.01351e-19 0)
(4.76772 -3.98202e-19 0)
(4.76509 -3.95074e-19 0)
(4.76244 -3.91967e-19 0)
(4.75977 -3.88881e-19 0)
(4.75709 -3.85815e-19 0)
(4.75439 -3.82771e-19 0)
(4.75168 -3.79748e-19 0)
(4.74896 -3.76745e-19 0)
(4.74622 -3.73763e-19 0)
(4.74347 -3.70801e-19 0)
(4.7407 -3.6786e-19 0)
(4.73792 -3.64939e-19 0)
(4.73513 -3.62039e-19 0)
(4.73232 -3.59159e-19 0)
(4.7295 -3.56299e-19 0)
(4.72667 -3.53459e-19 0)
(4.72382 -3.5064e-19 0)
(4.72096 -3.4784e-19 0)
(4.71808 -3.4506e-19 0)
(4.71519 -3.423e-19 0)
(4.71229 -3.3956e-19 0)
(4.70938 -3.36839e-19 0)
(4.70645 -3.34138e-19 0)
(4.70351 -3.31456e-19 0)
(4.70056 -3.28793e-19 0)
(4.6976 -3.2615e-19 0)
(4.69462 -3.23526e-19 0)
(4.69163 -3.20921e-19 0)
(4.68863 -3.18335e-19 0)
(4.68561 -3.15768e-19 0)
(4.68258 -3.1322e-19 0)
(4.67954 -3.10691e-19 0)
(4.67649 -3.0818e-19 0)
(4.67343 -3.05687e-19 0)
(4.67035 -3.03213e-19 0)
(4.66726 -3.00758e-19 0)
(4.66416 -2.9832e-19 0)
(4.66105 -2.95901e-19 0)
(4.65792 -2.935e-19 0)
(4.65479 -2.91117e-19 0)
(4.65164 -2.88751e-19 0)
(4.64848 -2.86404e-19 0)
(4.64531 -2.84074e-19 0)
(4.64212 -2.81761e-19 0)
(4.63893 -2.79466e-19 0)
(4.63572 -2.77189e-19 0)
(4.6325 -2.74928e-19 0)
(4.62927 -2.72685e-19 0)
(4.62603 -2.70459e-19 0)
(4.62278 -2.6825e-19 0)
(4.61951 -2.66058e-19 0)
(4.61624 -2.63882e-19 0)
(4.61295 -2.61723e-19 0)
(4.60965 -2.59581e-19 0)
(4.60635 -2.57455e-19 0)
(4.60303 -2.55346e-19 0)
(4.59969 -2.53252e-19 0)
(4.59635 -2.51175e-19 0)
(4.593 -2.49114e-19 0)
(4.58963 -2.4707e-19 0)
(4.58626 -2.4504e-19 0)
(4.58287 -2.43027e-19 0)
(4.57947 -2.4103e-19 0)
(4.57607 -2.39048e-19 0)
(4.57265 -2.37081e-19 0)
(4.56922 -2.3513e-19 0)
(4.56578 -2.33194e-19 0)
(4.56232 -2.31273e-19 0)
(4.55886 -2.29368e-19 0)
(4.55539 -2.27477e-19 0)
(4.5519 -2.25602e-19 0)
(4.54841 -2.23741e-19 0)
(4.5449 -2.21895e-19 0)
(4.54139 -2.20063e-19 0)
(4.53786 -2.18246e-19 0)
(4.53432 -2.16444e-19 0)
(4.53077 -2.14655e-19 0)
(4.52721 -2.12881e-19 0)
(4.52364 -2.11122e-19 0)
(4.52006 -2.09376e-19 0)
(4.51647 -2.07644e-19 0)
(4.51287 -2.05926e-19 0)
(4.50926 -2.04222e-19 0)
(4.50563 -2.02531e-19 0)
(4.502 -2.00854e-19 0)
(4.49835 -1.99191e-19 0)
(4.4947 -1.97541e-19 0)
(4.49103 -1.95904e-19 0)
(4.48736 -1.94281e-19 0)
(4.48367 -1.9267e-19 0)
(4.47997 -1.91073e-19 0)
(4.47626 -1.89489e-19 0)
(4.47254 -1.87917e-19 0)
(4.46881 -1.86359e-19 0)
(4.46507 -1.84812e-19 0)
(4.46132 -1.83279e-19 0)
(4.45756 -1.81758e-19 0)
(4.45379 -1.8025e-19 0)
(4.45 -1.78753e-19 0)
(4.44621 -1.7727e-19 0)
(4.4424 -1.75798e-19 0)
(4.43859 -1.74338e-19 0)
(4.43476 -1.7289e-19 0)
(4.43092 -1.71455e-19 0)
(4.42707 -1.70031e-19 0)
(4.42321 -1.68618e-19 0)
(4.41934 -1.67218e-19 0)
(4.41546 -1.65829e-19 0)
(4.41157 -1.64451e-19 0)
(4.40767 -1.63085e-19 0)
(4.40375 -1.6173e-19 0)
(4.39983 -1.60387e-19 0)
(4.39589 -1.59055e-19 0)
(4.39195 -1.57733e-19 0)
(4.38799 -1.56423e-19 0)
(4.38402 -1.55124e-19 0)
(4.38004 -1.53835e-19 0)
(4.37604 -1.52558e-19 0)
(4.37204 -1.5129e-19 0)
(4.36803 -1.50034e-19 0)
(4.364 -1.48788e-19 0)
(4.35996 -1.47553e-19 0)
(4.35591 -1.46328e-19 0)
(4.35185 -1.45113e-19 0)
(4.34778 -1.43908e-19 0)
(4.3437 -1.42714e-19 0)
(4.3396 -1.4153e-19 0)
(4.3355 -1.40355e-19 0)
(4.33138 -1.39191e-19 0)
(4.32725 -1.38036e-19 0)
(4.3231 -1.36892e-19 0)
(4.31895 -1.35757e-19 0)
(4.31478 -1.34631e-19 0)
(4.31061 -1.33515e-19 0)
(4.30642 -1.32409e-19 0)
(4.30221 -1.31312e-19 0)
(4.298 -1.30225e-19 0)
(4.29377 -1.29146e-19 0)
(4.28953 -1.28077e-19 0)
(4.28528 -1.27017e-19 0)
(4.28102 -1.25967e-19 0)
(4.27674 -1.24925e-19 0)
(4.27245 -1.23892e-19 0)
(4.26815 -1.22868e-19 0)
(4.26383 -1.21853e-19 0)
(4.2595 -1.20846e-19 0)
(4.25516 -1.19848e-19 0)
(4.25081 -1.18859e-19 0)
(4.24644 -1.17878e-19 0)
(4.24206 -1.16906e-19 0)
(4.23767 -1.15942e-19 0)
(4.23326 -1.14987e-19 0)
(4.22884 -1.1404e-19 0)
(4.2244 -1.13101e-19 0)
(4.21995 -1.1217e-19 0)
(4.21549 -1.11247e-19 0)
(4.21102 -1.10332e-19 0)
(4.20653 -1.09426e-19 0)
(4.20202 -1.08527e-19 0)
(4.1975 -1.07636e-19 0)
(4.19297 -1.06752e-19 0)
(4.18842 -1.05877e-19 0)
(4.18386 -1.05009e-19 0)
(4.17929 -1.04149e-19 0)
(4.1747 -1.03296e-19 0)
(4.17009 -1.02451e-19 0)
(4.16547 -1.01613e-19 0)
(4.16083 -1.00783e-19 0)
(4.15618 -9.99596e-20 0)
(4.15151 -9.91437e-20 0)
(4.14683 -9.8335e-20 0)
(4.14213 -9.75334e-20 0)
(4.13742 -9.6739e-20 0)
(4.13269 -9.59515e-20 0)
(4.12794 -9.5171e-20 0)
(4.12318 -9.43975e-20 0)
(4.1184 -9.36308e-20 0)
(4.1136 -9.28709e-20 0)
(4.10879 -9.21177e-20 0)
(4.10396 -9.13712e-20 0)
(4.09911 -9.06314e-20 0)
(4.09425 -8.98982e-20 0)
(4.08937 -8.91715e-20 0)
(4.08447 -8.84512e-20 0)
(4.07955 -8.77374e-20 0)
(4.07462 -8.703e-20 0)
(4.06967 -8.63289e-20 0)
(4.0647 -8.56341e-20 0)
(4.05971 -8.49455e-20 0)
(4.0547 -8.42631e-20 0)
(4.04967 -8.35868e-20 0)
(4.04463 -8.29166e-20 0)
(4.03956 -8.22524e-20 0)
(4.03448 -8.15942e-20 0)
(4.02937 -8.09419e-20 0)
(4.02425 -8.02955e-20 0)
(4.0191 -7.96549e-20 0)
(4.01394 -7.90201e-20 0)
(4.00875 -7.8391e-20 0)
(4.00355 -7.77676e-20 0)
(3.99832 -7.71499e-20 0)
(3.99307 -7.65377e-20 0)
(3.9878 -7.59311e-20 0)
(3.98251 -7.533e-20 0)
(3.97719 -7.47343e-20 0)
(3.97186 -7.4144e-20 0)
(3.9665 -7.35591e-20 0)
(3.96112 -7.29795e-20 0)
(3.95571 -7.24052e-20 0)
(3.95028 -7.18361e-20 0)
(3.94483 -7.12722e-20 0)
(3.93935 -7.07134e-20 0)
(3.93385 -7.01598e-20 0)
(3.92833 -6.96111e-20 0)
(3.92278 -6.90675e-20 0)
(3.9172 -6.85289e-20 0)
(3.9116 -6.79951e-20 0)
(3.90597 -6.74663e-20 0)
(3.90032 -6.69422e-20 0)
(3.89464 -6.6423e-20 0)
(3.88894 -6.59085e-20 0)
(3.8832 -6.53987e-20 0)
(3.87744 -6.48936e-20 0)
(3.87165 -6.43932e-20 0)
(3.86583 -6.38973e-20 0)
(3.85999 -6.34059e-20 0)
(3.85411 -6.29191e-20 0)
(3.84821 -6.24367e-20 0)
(3.84227 -6.19588e-20 0)
(3.83631 -6.14852e-20 0)
(3.83031 -6.1016e-20 0)
(3.82428 -6.05511e-20 0)
(3.81822 -6.00904e-20 0)
(3.81213 -5.9634e-20 0)
(3.80601 -5.91818e-20 0)
(3.79985 -5.87337e-20 0)
(3.79366 -5.82897e-20 0)
(3.78743 -5.78499e-20 0)
(3.78117 -5.7414e-20 0)
(3.77488 -5.69821e-20 0)
(3.76855 -5.65542e-20 0)
(3.76218 -5.61302e-20 0)
(3.75578 -5.57101e-20 0)
(3.74934 -5.52939e-20 0)
(3.74286 -5.48814e-20 0)
(3.73634 -5.44727e-20 0)
(3.72978 -5.40678e-20 0)
(3.72319 -5.36665e-20 0)
(3.71655 -5.32689e-20 0)
(3.70987 -5.2875e-20 0)
(3.70315 -5.24846e-20 0)
(3.69639 -5.20978e-20 0)
(3.68959 -5.17144e-20 0)
(3.68274 -5.13346e-20 0)
(3.67585 -5.09582e-20 0)
(3.66891 -5.05852e-20 0)
(3.66192 -5.02156e-20 0)
(3.65489 -4.98493e-20 0)
(3.64781 -4.94863e-20 0)
(3.64069 -4.91266e-20 0)
(3.63351 -4.87701e-20 0)
(3.62628 -4.84167e-20 0)
(3.619 -4.80666e-20 0)
(3.61167 -4.77195e-20 0)
(3.60429 -4.73755e-20 0)
(3.59685 -4.70346e-20 0)
(3.58936 -4.66967e-20 0)
(3.58182 -4.63618e-20 0)
(3.57421 -4.60298e-20 0)
(3.56655 -4.57007e-20 0)
(3.55883 -4.53744e-20 0)
(3.55104 -4.5051e-20 0)
(3.5432 -4.47304e-20 0)
(3.53529 -4.44125e-20 0)
(3.52732 -4.40974e-20 0)
(3.51929 -4.37849e-20 0)
(3.51119 -4.34751e-20 0)
(3.50302 -4.31679e-20 0)
(3.49478 -4.28633e-20 0)
(3.48647 -4.25612e-20 0)
(3.47809 -4.22616e-20 0)
(3.46964 -4.19644e-20 0)
(3.46111 -4.16697e-20 0)
(3.4525 -4.13774e-20 0)
(3.44382 -4.10874e-20 0)
(3.43505 -4.07997e-20 0)
(3.4262 -4.05143e-20 0)
(3.41727 -4.02311e-20 0)
(3.40826 -3.99501e-20 0)
(3.39915 -3.96712e-20 0)
(3.38996 -3.93945e-20 0)
(3.38068 -3.91198e-20 0)
(3.3713 -3.88471e-20 0)
(3.36183 -3.85764e-20 0)
(3.35226 -3.83077e-20 0)
(3.34258 -3.80408e-20 0)
(3.33281 -3.77758e-20 0)
(3.32293 -3.75126e-20 0)
(3.31294 -3.72512e-20 0)
(3.30284 -3.69915e-20 0)
(3.29263 -3.67334e-20 0)
(3.2823 -3.6477e-20 0)
(3.27185 -3.62221e-20 0)
(3.26127 -3.59688e-20 0)
(3.25057 -3.57169e-20 0)
(3.23975 -3.54664e-20 0)
(3.22878 -3.52173e-20 0)
(3.21768 -3.49696e-20 0)
(3.20644 -3.4723e-20 0)
(3.19506 -3.44777e-20 0)
(3.18353 -3.42335e-20 0)
(3.17184 -3.39904e-20 0)
(3.16 -3.37482e-20 0)
(3.14799 -3.35071e-20 0)
(3.13581 -3.32668e-20 0)
(3.12346 -3.30274e-20 0)
(3.11093 -3.27886e-20 0)
(3.09822 -3.25506e-20 0)
(3.08532 -3.23132e-20 0)
(3.07222 -3.20762e-20 0)
(3.05892 -3.18398e-20 0)
(3.04541 -3.16036e-20 0)
(3.03167 -3.13678e-20 0)
(3.01772 -3.11321e-20 0)
(3.00353 -3.08965e-20 0)
(2.98909 -3.06609e-20 0)
(2.97441 -3.04251e-20 0)
(2.95946 -3.01892e-20 0)
(2.94425 -2.99528e-20 0)
(2.92875 -2.97161e-20 0)
(2.91295 -2.94787e-20 0)
(2.89685 -2.92406e-20 0)
(2.88043 -2.90016e-20 0)
(2.86368 -2.87617e-20 0)
(2.84658 -2.85205e-20 0)
(2.82912 -2.8278e-20 0)
(2.81127 -2.8034e-20 0)
(2.79303 -2.77884e-20 0)
(2.77437 -2.75408e-20 0)
(2.75527 -2.72911e-20 0)
(2.73571 -2.7039e-20 0)
(2.71567 -2.67844e-20 0)
(2.69511 -2.65268e-20 0)
(2.67401 -2.62662e-20 0)
(2.65234 -2.60021e-20 0)
(2.63006 -2.57342e-20 0)
(2.60714 -2.54621e-20 0)
(2.58354 -2.51855e-20 0)
(2.55921 -2.49038e-20 0)
(2.53411 -2.46167e-20 0)
(2.50818 -2.43236e-20 0)
(2.48135 -2.40239e-20 0)
(2.45357 -2.37169e-20 0)
(2.42475 -2.3402e-20 0)
(2.39482 -2.30783e-20 0)
(2.36368 -2.27449e-20 0)
(2.33122 -2.24007e-20 0)
(2.29731 -2.20447e-20 0)
(2.26182 -2.16753e-20 0)
(2.22458 -2.12911e-20 0)
(2.1854 -2.08902e-20 0)
(2.14406 -2.04706e-20 0)
(2.10029 -2.00295e-20 0)
(2.05376 -1.95641e-20 0)
(2.0041 -1.90706e-20 0)
(1.95081 -1.85445e-20 0)
(1.8933 -1.798e-20 0)
(1.83081 -1.73701e-20 0)
(1.76234 -1.67051e-20 0)
(1.68655 -1.59727e-20 0)
(1.60163 -1.51556e-20 0)
(1.50496 -1.42291e-20 0)
(1.39266 -1.31567e-20 0)
(1.25866 -1.18813e-20 0)
(1.09297 -1.03089e-20 0)
(0.879028 -8.28389e-21 0)
(0.594488 -5.59703e-21 0)
(0.2354 -2.21354e-21 0)
)
;

boundaryField
{
    top_wall
    {
        type            noSlip;
    }
    inlet
    {
        type            cyclic;
    }
    bot_wall
    {
        type            noSlip;
    }
    outlet
    {
        type            cyclic;
    }
    frontAndBack
    {
        type            empty;
    }
}


// ************************************************************************* //
