# Wall shear stress
# Time          	patch           	min             	max             
0.5             	top_wall	(-8.66583807e-02 -8.34429289e-28 0.00000000e+00)	(-8.66583807e-02 -8.34429289e-28 0.00000000e+00)
0.5             	bot_wall	(-8.66585967e-02 -6.41722442e-18 0.00000000e+00)	(-8.66585967e-02 -6.41722442e-18 0.00000000e+00)
1               	top_wall	(-8.73003297e-02 -4.62219580e-27 0.00000000e+00)	(-8.73003297e-02 -4.62219580e-27 0.00000000e+00)
1               	bot_wall	(-8.72993446e-02 -5.26821392e-18 0.00000000e+00)	(-8.72993446e-02 -5.26821392e-18 0.00000000e+00)
1.5             	top_wall	(-8.72327661e-02 -5.71396526e-27 0.00000000e+00)	(-8.72327661e-02 -5.71396526e-27 0.00000000e+00)
1.5             	bot_wall	(-8.72318363e-02 -1.05886244e-18 0.00000000e+00)	(-8.72318363e-02 -1.05886244e-18 0.00000000e+00)
2               	top_wall	(-8.71876395e-02 -8.52079134e-27 0.00000000e+00)	(-8.71876395e-02 -8.52079134e-27 0.00000000e+00)
2               	bot_wall	(-8.71869184e-02 -1.99194300e-18 0.00000000e+00)	(-8.71869184e-02 -1.99194300e-18 0.00000000e+00)
2.5             	top_wall	(-8.71828804e-02 -1.15979322e-26 0.00000000e+00)	(-8.71828804e-02 -1.15979322e-26 0.00000000e+00)
2.5             	bot_wall	(-8.71823009e-02 3.16555579e-18 0.00000000e+00)	(-8.71823009e-02 3.16555579e-18 0.00000000e+00)
3               	top_wall	(-8.71974901e-02 -1.06810290e-26 0.00000000e+00)	(-8.71974901e-02 -1.06810290e-26 0.00000000e+00)
3               	bot_wall	(-8.71970312e-02 6.75306035e-19 0.00000000e+00)	(-8.71970312e-02 6.75306035e-19 0.00000000e+00)
3.5             	top_wall	(-8.72187480e-02 -1.18197583e-26 0.00000000e+00)	(-8.72187480e-02 -1.18197583e-26 0.00000000e+00)
3.5             	bot_wall	(-8.72184070e-02 -9.07244194e-19 0.00000000e+00)	(-8.72184070e-02 -9.07244194e-19 0.00000000e+00)
4               	top_wall	(-8.72535934e-02 -1.44879054e-26 0.00000000e+00)	(-8.72535934e-02 -1.44879054e-26 0.00000000e+00)
4               	bot_wall	(-8.72533566e-02 7.38909015e-19 0.00000000e+00)	(-8.72533566e-02 7.38909015e-19 0.00000000e+00)
4.5             	top_wall	(-8.73037756e-02 -1.78566721e-26 0.00000000e+00)	(-8.73037756e-02 -1.78566721e-26 0.00000000e+00)
4.5             	bot_wall	(-8.73036240e-02 2.64807402e-18 0.00000000e+00)	(-8.73036240e-02 2.64807402e-18 0.00000000e+00)
5               	top_wall	(-8.73690184e-02 -3.63409254e-26 0.00000000e+00)	(-8.73690184e-02 -3.63409254e-26 0.00000000e+00)
5               	bot_wall	(-8.73689344e-02 3.88729966e-19 0.00000000e+00)	(-8.73689344e-02 3.88729966e-19 0.00000000e+00)
5.5             	top_wall	(-8.74502219e-02 -9.55084123e-26 0.00000000e+00)	(-8.74502219e-02 -9.55084123e-26 0.00000000e+00)
5.5             	bot_wall	(-8.74501903e-02 -1.43533253e-18 0.00000000e+00)	(-8.74501903e-02 -1.43533253e-18 0.00000000e+00)
6               	top_wall	(-8.75469528e-02 -2.68204686e-25 0.00000000e+00)	(-8.75469528e-02 -2.68204686e-25 0.00000000e+00)
6               	bot_wall	(-8.75469616e-02 1.99671289e-18 0.00000000e+00)	(-8.75469616e-02 1.99671289e-18 0.00000000e+00)
6.5             	top_wall	(-8.76578959e-02 -6.36308564e-25 0.00000000e+00)	(-8.76578959e-02 -6.36308564e-25 0.00000000e+00)
6.5             	bot_wall	(-8.76579360e-02 3.10946782e-18 0.00000000e+00)	(-8.76579360e-02 3.10946782e-18 0.00000000e+00)
7               	top_wall	(-8.77831073e-02 -1.28095685e-24 0.00000000e+00)	(-8.77831073e-02 -1.28095685e-24 0.00000000e+00)
7               	bot_wall	(-8.77831724e-02 6.85999881e-18 0.00000000e+00)	(-8.77831724e-02 6.85999881e-18 0.00000000e+00)
7.5             	top_wall	(-8.79221046e-02 -2.29421441e-24 0.00000000e+00)	(-8.79221046e-02 -2.29421441e-24 0.00000000e+00)
7.5             	bot_wall	(-8.79221894e-02 3.00892514e-18 0.00000000e+00)	(-8.79221894e-02 3.00892514e-18 0.00000000e+00)
8               	top_wall	(-8.80748156e-02 -3.70932896e-24 0.00000000e+00)	(-8.80748156e-02 -3.70932896e-24 0.00000000e+00)
8               	bot_wall	(-8.80749165e-02 2.84423491e-18 0.00000000e+00)	(-8.80749165e-02 2.84423491e-18 0.00000000e+00)
8.5             	top_wall	(-8.82427342e-02 -5.49310030e-24 0.00000000e+00)	(-8.82427342e-02 -5.49310030e-24 0.00000000e+00)
8.5             	bot_wall	(-8.82428483e-02 8.79128092e-19 0.00000000e+00)	(-8.82428483e-02 8.79128092e-19 0.00000000e+00)
9               	top_wall	(-8.84300185e-02 -7.51341015e-24 0.00000000e+00)	(-8.84300185e-02 -7.51341015e-24 0.00000000e+00)
9               	bot_wall	(-8.84301434e-02 7.39936950e-19 0.00000000e+00)	(-8.84301434e-02 7.39936950e-19 0.00000000e+00)
9.5             	top_wall	(-8.86429584e-02 -9.54410116e-24 0.00000000e+00)	(-8.86429584e-02 -9.54410116e-24 0.00000000e+00)
9.5             	bot_wall	(-8.86430919e-02 2.53728503e-18 0.00000000e+00)	(-8.86430919e-02 2.53728503e-18 0.00000000e+00)
10              	top_wall	(-8.88860279e-02 -1.12498560e-23 0.00000000e+00)	(-8.88860279e-02 -1.12498560e-23 0.00000000e+00)
10              	bot_wall	(-8.88861686e-02 8.94681609e-19 0.00000000e+00)	(-8.88861686e-02 8.94681609e-19 0.00000000e+00)
10.5            	top_wall	(-8.91564722e-02 -1.21838927e-23 0.00000000e+00)	(-8.91564722e-02 -1.21838927e-23 0.00000000e+00)
10.5            	bot_wall	(-8.91566185e-02 9.63703970e-19 0.00000000e+00)	(-8.91566185e-02 9.63703970e-19 0.00000000e+00)
11              	top_wall	(-8.94453663e-02 -1.17877785e-23 0.00000000e+00)	(-8.94453663e-02 -1.17877785e-23 0.00000000e+00)
11              	bot_wall	(-8.94455169e-02 9.76975095e-19 0.00000000e+00)	(-8.94455169e-02 9.76975095e-19 0.00000000e+00)
11.5            	top_wall	(-8.97444865e-02 -9.40440393e-24 0.00000000e+00)	(-8.97444865e-02 -9.40440393e-24 0.00000000e+00)
11.5            	bot_wall	(-8.97446403e-02 2.41029043e-18 0.00000000e+00)	(-8.97446403e-02 2.41029043e-18 0.00000000e+00)
12              	top_wall	(-9.00491392e-02 -4.24504077e-24 0.00000000e+00)	(-9.00491392e-02 -4.24504077e-24 0.00000000e+00)
12              	bot_wall	(-9.00492947e-02 1.59979835e-18 0.00000000e+00)	(-9.00492947e-02 1.59979835e-18 0.00000000e+00)
12.5            	top_wall	(-9.03567311e-02 4.62963143e-24 0.00000000e+00)	(-9.03567311e-02 4.62963143e-24 0.00000000e+00)
12.5            	bot_wall	(-9.03568874e-02 1.38106850e-18 0.00000000e+00)	(-9.03568874e-02 1.38106850e-18 0.00000000e+00)
13              	top_wall	(-9.06657260e-02 1.83453059e-23 0.00000000e+00)	(-9.06657260e-02 1.83453059e-23 0.00000000e+00)
13              	bot_wall	(-9.06658818e-02 -1.77836958e-18 0.00000000e+00)	(-9.06658818e-02 -1.77836958e-18 0.00000000e+00)
13.5            	top_wall	(-9.09749528e-02 3.82051591e-23 0.00000000e+00)	(-9.09749528e-02 3.82051591e-23 0.00000000e+00)
13.5            	bot_wall	(-9.09751070e-02 2.27745009e-18 0.00000000e+00)	(-9.09751070e-02 2.27745009e-18 0.00000000e+00)
14              	top_wall	(-9.12834073e-02 6.57834830e-23 0.00000000e+00)	(-9.12834073e-02 6.57834830e-23 0.00000000e+00)
14              	bot_wall	(-9.12835594e-02 5.84077568e-18 0.00000000e+00)	(-9.12835594e-02 5.84077568e-18 0.00000000e+00)
14.5            	top_wall	(-9.15904572e-02 1.02789814e-22 0.00000000e+00)	(-9.15904572e-02 1.02789814e-22 0.00000000e+00)
14.5            	bot_wall	(-9.15906061e-02 4.62467825e-18 0.00000000e+00)	(-9.15906061e-02 4.62467825e-18 0.00000000e+00)
15              	top_wall	(-9.18956316e-02 1.51167697e-22 0.00000000e+00)	(-9.18956316e-02 1.51167697e-22 0.00000000e+00)
15              	bot_wall	(-9.18957770e-02 4.95645730e-18 0.00000000e+00)	(-9.18957770e-02 4.95645730e-18 0.00000000e+00)
15.5            	top_wall	(-9.21985096e-02 2.13043995e-22 0.00000000e+00)	(-9.21985096e-02 2.13043995e-22 0.00000000e+00)
15.5            	bot_wall	(-9.21986512e-02 4.72639990e-18 0.00000000e+00)	(-9.21986512e-02 4.72639990e-18 0.00000000e+00)
16              	top_wall	(-9.24987640e-02 2.90630191e-22 0.00000000e+00)	(-9.24987640e-02 2.90630191e-22 0.00000000e+00)
16              	bot_wall	(-9.24989011e-02 3.36972031e-18 0.00000000e+00)	(-9.24989011e-02 3.36972031e-18 0.00000000e+00)
16.5            	top_wall	(-9.27959477e-02 3.86200276e-22 0.00000000e+00)	(-9.27959477e-02 3.86200276e-22 0.00000000e+00)
16.5            	bot_wall	(-9.27960799e-02 2.48166747e-18 0.00000000e+00)	(-9.27960799e-02 2.48166747e-18 0.00000000e+00)
17              	top_wall	(-9.30895973e-02 5.02074893e-22 0.00000000e+00)	(-9.30895973e-02 5.02074893e-22 0.00000000e+00)
17              	bot_wall	(-9.30897246e-02 6.11354269e-18 0.00000000e+00)	(-9.30897246e-02 6.11354269e-18 0.00000000e+00)
17.5            	top_wall	(-9.33792883e-02 6.40464864e-22 0.00000000e+00)	(-9.33792883e-02 6.40464864e-22 0.00000000e+00)
17.5            	bot_wall	(-9.33794101e-02 4.95559046e-18 0.00000000e+00)	(-9.33794101e-02 4.95559046e-18 0.00000000e+00)
18              	top_wall	(-9.36643286e-02 8.03465391e-22 0.00000000e+00)	(-9.36643286e-02 8.03465391e-22 0.00000000e+00)
18              	bot_wall	(-9.36644453e-02 1.96543417e-18 0.00000000e+00)	(-9.36644453e-02 1.96543417e-18 0.00000000e+00)
18.5            	top_wall	(-9.39445022e-02 9.92999242e-22 0.00000000e+00)	(-9.39445022e-02 9.92999242e-22 0.00000000e+00)
18.5            	bot_wall	(-9.39446137e-02 2.97539053e-18 0.00000000e+00)	(-9.39446137e-02 2.97539053e-18 0.00000000e+00)
19              	top_wall	(-9.42193788e-02 1.21079365e-21 0.00000000e+00)	(-9.42193788e-02 1.21079365e-21 0.00000000e+00)
19              	bot_wall	(-9.42194853e-02 4.99117099e-18 0.00000000e+00)	(-9.42194853e-02 4.99117099e-18 0.00000000e+00)
19.5            	top_wall	(-9.44886113e-02 1.45831746e-21 0.00000000e+00)	(-9.44886113e-02 1.45831746e-21 0.00000000e+00)
19.5            	bot_wall	(-9.44887126e-02 5.04704325e-18 0.00000000e+00)	(-9.44887126e-02 5.04704325e-18 0.00000000e+00)
20              	top_wall	(-9.47518405e-02 1.73682012e-21 0.00000000e+00)	(-9.47518405e-02 1.73682012e-21 0.00000000e+00)
20              	bot_wall	(-9.47519369e-02 6.59624809e-18 0.00000000e+00)	(-9.47519369e-02 6.59624809e-18 0.00000000e+00)
20.5            	top_wall	(-9.50074001e-02 2.04731831e-21 0.00000000e+00)	(-9.50074001e-02 2.04731831e-21 0.00000000e+00)
20.5            	bot_wall	(-9.50074911e-02 2.53828906e-18 0.00000000e+00)	(-9.50074911e-02 2.53828906e-18 0.00000000e+00)
