# Wall shear stress
# Time          	patch           	min             	max             
0.5             	top_wall	(-1.60564145e-01 1.27716516e-27 0.00000000e+00)	(-1.60564145e-01 1.27716516e-27 0.00000000e+00)
0.5             	bot_wall	(-1.60564147e-01 -2.24674269e-17 0.00000000e+00)	(-1.60564147e-01 -2.24674269e-17 0.00000000e+00)
1               	top_wall	(-1.18699011e-01 -6.50752270e-27 0.00000000e+00)	(-1.18699011e-01 -6.50752270e-27 0.00000000e+00)
1               	bot_wall	(-1.18699013e-01 -6.69378226e-18 0.00000000e+00)	(-1.18699013e-01 -6.69378226e-18 0.00000000e+00)
1.5             	top_wall	(-1.00399477e-01 -8.59940221e-27 0.00000000e+00)	(-1.00399477e-01 -8.59940221e-27 0.00000000e+00)
1.5             	bot_wall	(-1.00399479e-01 -7.36026039e-19 0.00000000e+00)	(-1.00399479e-01 -7.36026039e-19 0.00000000e+00)
2               	top_wall	(-8.96133698e-02 -7.04689963e-27 0.00000000e+00)	(-8.96133698e-02 -7.04689963e-27 0.00000000e+00)
2               	bot_wall	(-8.96133718e-02 7.63491457e-19 0.00000000e+00)	(-8.96133718e-02 7.63491457e-19 0.00000000e+00)
2.5             	top_wall	(-8.23332715e-02 -1.15451784e-26 0.00000000e+00)	(-8.23332715e-02 -1.15451784e-26 0.00000000e+00)
2.5             	bot_wall	(-8.23332735e-02 -1.14076010e-17 0.00000000e+00)	(-8.23332735e-02 -1.14076010e-17 0.00000000e+00)
3               	top_wall	(-7.70189846e-02 -1.52713693e-26 0.00000000e+00)	(-7.70189846e-02 -1.52713693e-26 0.00000000e+00)
3               	bot_wall	(-7.70189866e-02 -1.12764861e-17 0.00000000e+00)	(-7.70189866e-02 -1.12764861e-17 0.00000000e+00)
3.5             	top_wall	(-7.29357469e-02 -1.56118810e-26 0.00000000e+00)	(-7.29357469e-02 -1.56118810e-26 0.00000000e+00)
3.5             	bot_wall	(-7.29357489e-02 -4.89976531e-19 0.00000000e+00)	(-7.29357489e-02 -4.89976531e-19 0.00000000e+00)
4               	top_wall	(-6.96829698e-02 -1.93113645e-26 0.00000000e+00)	(-6.96829698e-02 -1.93113645e-26 0.00000000e+00)
4               	bot_wall	(-6.96829717e-02 -9.87767091e-18 0.00000000e+00)	(-6.96829717e-02 -9.87767091e-18 0.00000000e+00)
4.5             	top_wall	(-6.70213080e-02 -1.93454482e-26 0.00000000e+00)	(-6.70213080e-02 -1.93454482e-26 0.00000000e+00)
4.5             	bot_wall	(-6.70213100e-02 -1.78041824e-17 0.00000000e+00)	(-6.70213100e-02 -1.78041824e-17 0.00000000e+00)
5               	top_wall	(-6.47978410e-02 -3.09607882e-26 0.00000000e+00)	(-6.47978410e-02 -3.09607882e-26 0.00000000e+00)
5               	bot_wall	(-6.47978429e-02 -3.72802238e-17 0.00000000e+00)	(-6.47978429e-02 -3.72802238e-17 0.00000000e+00)
5.5             	top_wall	(-6.29097315e-02 -6.69792095e-26 0.00000000e+00)	(-6.29097315e-02 -6.69792095e-26 0.00000000e+00)
5.5             	bot_wall	(-6.29097335e-02 -1.28652291e-17 0.00000000e+00)	(-6.29097335e-02 -1.28652291e-17 0.00000000e+00)
6               	top_wall	(-6.12849358e-02 -1.77683044e-25 0.00000000e+00)	(-6.12849358e-02 -1.77683044e-25 0.00000000e+00)
6               	bot_wall	(-6.12849377e-02 -1.08558861e-17 0.00000000e+00)	(-6.12849377e-02 -1.08558861e-17 0.00000000e+00)
6.5             	top_wall	(-5.98713098e-02 -4.57793976e-25 0.00000000e+00)	(-5.98713098e-02 -4.57793976e-25 0.00000000e+00)
6.5             	bot_wall	(-5.98713117e-02 -1.78504962e-19 0.00000000e+00)	(-5.98713117e-02 -1.78504962e-19 0.00000000e+00)
7               	top_wall	(-5.86300631e-02 -1.05386291e-24 0.00000000e+00)	(-5.86300631e-02 -1.05386291e-24 0.00000000e+00)
7               	bot_wall	(-5.86300651e-02 -1.67121440e-18 0.00000000e+00)	(-5.86300651e-02 -1.67121440e-18 0.00000000e+00)
7.5             	top_wall	(-5.75316595e-02 -2.17193985e-24 0.00000000e+00)	(-5.75316595e-02 -2.17193985e-24 0.00000000e+00)
7.5             	bot_wall	(-5.75316614e-02 9.59713719e-18 0.00000000e+00)	(-5.75316614e-02 9.59713719e-18 0.00000000e+00)
8               	top_wall	(-5.65531812e-02 -4.07262936e-24 0.00000000e+00)	(-5.65531812e-02 -4.07262936e-24 0.00000000e+00)
8               	bot_wall	(-5.65531831e-02 5.57500414e-18 0.00000000e+00)	(-5.65531831e-02 5.57500414e-18 0.00000000e+00)
8.5             	top_wall	(-5.56765171e-02 -7.05489607e-24 0.00000000e+00)	(-5.56765171e-02 -7.05489607e-24 0.00000000e+00)
8.5             	bot_wall	(-5.56765191e-02 1.60413333e-17 0.00000000e+00)	(-5.56765191e-02 1.60413333e-17 0.00000000e+00)
9               	top_wall	(-5.48871692e-02 -1.14313965e-23 0.00000000e+00)	(-5.48871692e-02 -1.14313965e-23 0.00000000e+00)
9               	bot_wall	(-5.48871711e-02 1.09398068e-17 0.00000000e+00)	(-5.48871711e-02 1.09398068e-17 0.00000000e+00)
9.5             	top_wall	(-5.41733488e-02 -1.75429660e-23 0.00000000e+00)	(-5.41733488e-02 -1.75429660e-23 0.00000000e+00)
9.5             	bot_wall	(-5.41733508e-02 -1.12706581e-17 0.00000000e+00)	(-5.41733508e-02 -1.12706581e-17 0.00000000e+00)
10              	top_wall	(-5.35253876e-02 -2.57162393e-23 0.00000000e+00)	(-5.35253876e-02 -2.57162393e-23 0.00000000e+00)
10              	bot_wall	(-5.35253895e-02 -1.38083996e-17 0.00000000e+00)	(-5.35253895e-02 -1.38083996e-17 0.00000000e+00)
10.5            	top_wall	(-5.29352456e-02 -3.62822030e-23 0.00000000e+00)	(-5.29352456e-02 -3.62822030e-23 0.00000000e+00)
10.5            	bot_wall	(-5.29352476e-02 -1.34756559e-17 0.00000000e+00)	(-5.29352476e-02 -1.34756559e-17 0.00000000e+00)
11              	top_wall	(-5.23961955e-02 -4.95605193e-23 0.00000000e+00)	(-5.23961955e-02 -4.95605193e-23 0.00000000e+00)
11              	bot_wall	(-5.23961974e-02 -3.88178152e-18 0.00000000e+00)	(-5.23961974e-02 -3.88178152e-18 0.00000000e+00)
11.5            	top_wall	(-5.19025442e-02 -6.58511294e-23 0.00000000e+00)	(-5.19025442e-02 -6.58511294e-23 0.00000000e+00)
11.5            	bot_wall	(-5.19025462e-02 -5.02647712e-18 0.00000000e+00)	(-5.19025462e-02 -5.02647712e-18 0.00000000e+00)
12              	top_wall	(-5.14494394e-02 -8.54135069e-23 0.00000000e+00)	(-5.14494394e-02 -8.54135069e-23 0.00000000e+00)
12              	bot_wall	(-5.14494414e-02 -3.42915898e-18 0.00000000e+00)	(-5.14494414e-02 -3.42915898e-18 0.00000000e+00)
12.5            	top_wall	(-5.10327273e-02 -1.08460693e-22 0.00000000e+00)	(-5.10327273e-02 -1.08460693e-22 0.00000000e+00)
12.5            	bot_wall	(-5.10327293e-02 -2.27124505e-18 0.00000000e+00)	(-5.10327293e-02 -2.27124505e-18 0.00000000e+00)
13              	top_wall	(-5.06487948e-02 -1.35141622e-22 0.00000000e+00)	(-5.06487948e-02 -1.35141622e-22 0.00000000e+00)
13              	bot_wall	(-5.06487968e-02 -4.77533254e-18 0.00000000e+00)	(-5.06487968e-02 -4.77533254e-18 0.00000000e+00)
13.5            	top_wall	(-5.02945285e-02 -1.65528615e-22 0.00000000e+00)	(-5.02945285e-02 -1.65528615e-22 0.00000000e+00)
13.5            	bot_wall	(-5.02945305e-02 -6.70038983e-18 0.00000000e+00)	(-5.02945305e-02 -6.70038983e-18 0.00000000e+00)
14              	top_wall	(-4.99671711e-02 -1.99605029e-22 0.00000000e+00)	(-4.99671711e-02 -1.99605029e-22 0.00000000e+00)
14              	bot_wall	(-4.99671732e-02 4.07996124e-18 0.00000000e+00)	(-4.99671732e-02 4.07996124e-18 0.00000000e+00)
14.5            	top_wall	(-4.96643256e-02 -2.37251196e-22 0.00000000e+00)	(-4.96643256e-02 -2.37251196e-22 0.00000000e+00)
14.5            	bot_wall	(-4.96643276e-02 6.42663033e-18 0.00000000e+00)	(-4.96643276e-02 6.42663033e-18 0.00000000e+00)
15              	top_wall	(-4.93838471e-02 -2.78259068e-22 0.00000000e+00)	(-4.93838471e-02 -2.78259068e-22 0.00000000e+00)
15              	bot_wall	(-4.93838491e-02 2.31566494e-18 0.00000000e+00)	(-4.93838491e-02 2.31566494e-18 0.00000000e+00)
15.5            	top_wall	(-4.91238459e-02 -3.22339257e-22 0.00000000e+00)	(-4.91238459e-02 -3.22339257e-22 0.00000000e+00)
15.5            	bot_wall	(-4.91238479e-02 6.28242362e-18 0.00000000e+00)	(-4.91238479e-02 6.28242362e-18 0.00000000e+00)
16              	top_wall	(-4.88826248e-02 -3.69129395e-22 0.00000000e+00)	(-4.88826248e-02 -3.69129395e-22 0.00000000e+00)
16              	bot_wall	(-4.88826268e-02 -6.79403033e-18 0.00000000e+00)	(-4.88826268e-02 -6.79403033e-18 0.00000000e+00)
16.5            	top_wall	(-4.86586587e-02 -4.18231244e-22 0.00000000e+00)	(-4.86586587e-02 -4.18231244e-22 0.00000000e+00)
16.5            	bot_wall	(-4.86586608e-02 -1.71374930e-17 0.00000000e+00)	(-4.86586608e-02 -1.71374930e-17 0.00000000e+00)
17              	top_wall	(-4.84505963e-02 -4.69221979e-22 0.00000000e+00)	(-4.84505963e-02 -4.69221979e-22 0.00000000e+00)
17              	bot_wall	(-4.84505983e-02 3.43010518e-18 0.00000000e+00)	(-4.84505983e-02 3.43010518e-18 0.00000000e+00)
17.5            	top_wall	(-4.82571792e-02 -5.21657397e-22 0.00000000e+00)	(-4.82571792e-02 -5.21657397e-22 0.00000000e+00)
17.5            	bot_wall	(-4.82571813e-02 -8.11415612e-18 0.00000000e+00)	(-4.82571813e-02 -8.11415612e-18 0.00000000e+00)
18              	top_wall	(-4.80773041e-02 -5.75105729e-22 0.00000000e+00)	(-4.80773041e-02 -5.75105729e-22 0.00000000e+00)
18              	bot_wall	(-4.80773062e-02 -1.33605381e-17 0.00000000e+00)	(-4.80773062e-02 -1.33605381e-17 0.00000000e+00)
18.5            	top_wall	(-4.79099365e-02 -6.29122797e-22 0.00000000e+00)	(-4.79099365e-02 -6.29122797e-22 0.00000000e+00)
18.5            	bot_wall	(-4.79099386e-02 -1.21079662e-17 0.00000000e+00)	(-4.79099386e-02 -1.21079662e-17 0.00000000e+00)
19              	top_wall	(-4.77541564e-02 -6.83274658e-22 0.00000000e+00)	(-4.77541564e-02 -6.83274658e-22 0.00000000e+00)
19              	bot_wall	(-4.77541585e-02 -2.02404410e-17 0.00000000e+00)	(-4.77541585e-02 -2.02404410e-17 0.00000000e+00)
19.5            	top_wall	(-4.76091076e-02 -7.37124338e-22 0.00000000e+00)	(-4.76091076e-02 -7.37124338e-22 0.00000000e+00)
19.5            	bot_wall	(-4.76091097e-02 2.98660170e-18 0.00000000e+00)	(-4.76091097e-02 2.98660170e-18 0.00000000e+00)
20              	top_wall	(-4.74740070e-02 -7.90226162e-22 0.00000000e+00)	(-4.74740070e-02 -7.90226162e-22 0.00000000e+00)
20              	bot_wall	(-4.74740092e-02 7.66650112e-18 0.00000000e+00)	(-4.74740092e-02 7.66650112e-18 0.00000000e+00)
20.5            	top_wall	(-4.73481564e-02 -8.42149998e-22 0.00000000e+00)	(-4.73481564e-02 -8.42149998e-22 0.00000000e+00)
20.5            	bot_wall	(-4.73481585e-02 2.31670664e-18 0.00000000e+00)	(-4.73481585e-02 2.31670664e-18 0.00000000e+00)
21              	top_wall	(-4.72308747e-02 -8.92473214e-22 0.00000000e+00)	(-4.72308747e-02 -8.92473214e-22 0.00000000e+00)
21              	bot_wall	(-4.72308768e-02 3.06312519e-19 0.00000000e+00)	(-4.72308768e-02 3.06312519e-19 0.00000000e+00)
21.5            	top_wall	(-4.71215739e-02 -9.40795054e-22 0.00000000e+00)	(-4.71215739e-02 -9.40795054e-22 0.00000000e+00)
21.5            	bot_wall	(-4.71215760e-02 -6.57755312e-18 0.00000000e+00)	(-4.71215760e-02 -6.57755312e-18 0.00000000e+00)
22              	top_wall	(-4.70196794e-02 -9.86731333e-22 0.00000000e+00)	(-4.70196794e-02 -9.86731333e-22 0.00000000e+00)
22              	bot_wall	(-4.70196815e-02 -1.27301008e-17 0.00000000e+00)	(-4.70196815e-02 -1.27301008e-17 0.00000000e+00)
22.5            	top_wall	(-4.69246839e-02 -1.02994782e-21 0.00000000e+00)	(-4.69246839e-02 -1.02994782e-21 0.00000000e+00)
22.5            	bot_wall	(-4.69246861e-02 -1.34117249e-17 0.00000000e+00)	(-4.69246861e-02 -1.34117249e-17 0.00000000e+00)
23              	top_wall	(-4.68361038e-02 -1.07013248e-21 0.00000000e+00)	(-4.68361038e-02 -1.07013248e-21 0.00000000e+00)
23              	bot_wall	(-4.68361060e-02 -5.69139663e-18 0.00000000e+00)	(-4.68361060e-02 -5.69139663e-18 0.00000000e+00)
23.5            	top_wall	(-4.67534917e-02 -1.10703125e-21 0.00000000e+00)	(-4.67534917e-02 -1.10703125e-21 0.00000000e+00)
23.5            	bot_wall	(-4.67534938e-02 -6.24997021e-18 0.00000000e+00)	(-4.67534938e-02 -6.24997021e-18 0.00000000e+00)
24              	top_wall	(-4.66764537e-02 -1.14043182e-21 0.00000000e+00)	(-4.66764537e-02 -1.14043182e-21 0.00000000e+00)
24              	bot_wall	(-4.66764558e-02 -2.00079183e-18 0.00000000e+00)	(-4.66764558e-02 -2.00079183e-18 0.00000000e+00)
24.5            	top_wall	(-4.66045871e-02 -1.17018629e-21 0.00000000e+00)	(-4.66045871e-02 -1.17018629e-21 0.00000000e+00)
24.5            	bot_wall	(-4.66045893e-02 -1.60996352e-17 0.00000000e+00)	(-4.66045893e-02 -1.60996352e-17 0.00000000e+00)
25              	top_wall	(-4.65375554e-02 -1.19619098e-21 0.00000000e+00)	(-4.65375554e-02 -1.19619098e-21 0.00000000e+00)
25              	bot_wall	(-4.65375576e-02 -1.06076279e-17 0.00000000e+00)	(-4.65375576e-02 -1.06076279e-17 0.00000000e+00)
25.5            	top_wall	(-4.64750169e-02 -1.21841712e-21 0.00000000e+00)	(-4.64750169e-02 -1.21841712e-21 0.00000000e+00)
25.5            	bot_wall	(-4.64750191e-02 -1.77257817e-17 0.00000000e+00)	(-4.64750191e-02 -1.77257817e-17 0.00000000e+00)
26              	top_wall	(-4.64166739e-02 -1.23689462e-21 0.00000000e+00)	(-4.64166739e-02 -1.23689462e-21 0.00000000e+00)
26              	bot_wall	(-4.64166761e-02 -1.68503673e-18 0.00000000e+00)	(-4.64166761e-02 -1.68503673e-18 0.00000000e+00)
26.5            	top_wall	(-4.63622401e-02 -1.25171712e-21 0.00000000e+00)	(-4.63622401e-02 -1.25171712e-21 0.00000000e+00)
26.5            	bot_wall	(-4.63622423e-02 -8.02030696e-18 0.00000000e+00)	(-4.63622423e-02 -8.02030696e-18 0.00000000e+00)
27              	top_wall	(-4.63114453e-02 -1.26302869e-21 0.00000000e+00)	(-4.63114453e-02 -1.26302869e-21 0.00000000e+00)
27              	bot_wall	(-4.63114474e-02 -1.14446719e-17 0.00000000e+00)	(-4.63114474e-02 -1.14446719e-17 0.00000000e+00)
27.5            	top_wall	(-4.62640595e-02 -1.27102855e-21 0.00000000e+00)	(-4.62640595e-02 -1.27102855e-21 0.00000000e+00)
27.5            	bot_wall	(-4.62640617e-02 -3.50003683e-18 0.00000000e+00)	(-4.62640617e-02 -3.50003683e-18 0.00000000e+00)
28              	top_wall	(-4.62198345e-02 -1.27596138e-21 0.00000000e+00)	(-4.62198345e-02 -1.27596138e-21 0.00000000e+00)
28              	bot_wall	(-4.62198367e-02 3.14983561e-18 0.00000000e+00)	(-4.62198367e-02 3.14983561e-18 0.00000000e+00)
28.5            	top_wall	(-4.61785715e-02 -1.27810871e-21 0.00000000e+00)	(-4.61785715e-02 -1.27810871e-21 0.00000000e+00)
28.5            	bot_wall	(-4.61785737e-02 -4.91009045e-18 0.00000000e+00)	(-4.61785737e-02 -4.91009045e-18 0.00000000e+00)
29              	top_wall	(-4.61400622e-02 -1.27777889e-21 0.00000000e+00)	(-4.61400622e-02 -1.27777889e-21 0.00000000e+00)
29              	bot_wall	(-4.61400644e-02 -9.68388091e-18 0.00000000e+00)	(-4.61400644e-02 -9.68388091e-18 0.00000000e+00)
29.5            	top_wall	(-4.61041252e-02 -1.27529923e-21 0.00000000e+00)	(-4.61041252e-02 -1.27529923e-21 0.00000000e+00)
29.5            	bot_wall	(-4.61041274e-02 -3.97981810e-18 0.00000000e+00)	(-4.61041274e-02 -3.97981810e-18 0.00000000e+00)
30              	top_wall	(-4.60705907e-02 -1.27101463e-21 0.00000000e+00)	(-4.60705907e-02 -1.27101463e-21 0.00000000e+00)
30              	bot_wall	(-4.60705929e-02 -1.16463160e-17 0.00000000e+00)	(-4.60705929e-02 -1.16463160e-17 0.00000000e+00)
30.5            	top_wall	(-4.60392888e-02 -1.26527079e-21 0.00000000e+00)	(-4.60392888e-02 -1.26527079e-21 0.00000000e+00)
30.5            	bot_wall	(-4.60392910e-02 4.30663901e-18 0.00000000e+00)	(-4.60392910e-02 4.30663901e-18 0.00000000e+00)
31              	top_wall	(-4.60100844e-02 -1.25841734e-21 0.00000000e+00)	(-4.60100844e-02 -1.25841734e-21 0.00000000e+00)
31              	bot_wall	(-4.60100866e-02 2.07509572e-18 0.00000000e+00)	(-4.60100866e-02 2.07509572e-18 0.00000000e+00)
31.5            	top_wall	(-4.59828222e-02 -1.25078442e-21 0.00000000e+00)	(-4.59828222e-02 -1.25078442e-21 0.00000000e+00)
31.5            	bot_wall	(-4.59828243e-02 -8.77133307e-18 0.00000000e+00)	(-4.59828243e-02 -8.77133307e-18 0.00000000e+00)
32              	top_wall	(-4.59573823e-02 -1.24268658e-21 0.00000000e+00)	(-4.59573823e-02 -1.24268658e-21 0.00000000e+00)
32              	bot_wall	(-4.59573844e-02 4.82223658e-19 0.00000000e+00)	(-4.59573844e-02 4.82223658e-19 0.00000000e+00)
32.5            	top_wall	(-4.59336378e-02 -1.23441069e-21 0.00000000e+00)	(-4.59336378e-02 -1.23441069e-21 0.00000000e+00)
32.5            	bot_wall	(-4.59336400e-02 -8.40855521e-18 0.00000000e+00)	(-4.59336400e-02 -8.40855521e-18 0.00000000e+00)
33              	top_wall	(-4.59114717e-02 -1.22620327e-21 0.00000000e+00)	(-4.59114717e-02 -1.22620327e-21 0.00000000e+00)
33              	bot_wall	(-4.59114739e-02 -1.17507249e-17 0.00000000e+00)	(-4.59114739e-02 -1.17507249e-17 0.00000000e+00)
33.5            	top_wall	(-4.58907944e-02 -1.21827007e-21 0.00000000e+00)	(-4.58907944e-02 -1.21827007e-21 0.00000000e+00)
33.5            	bot_wall	(-4.58907965e-02 -8.44404909e-18 0.00000000e+00)	(-4.58907965e-02 -8.44404909e-18 0.00000000e+00)
34              	top_wall	(-4.58714868e-02 -1.21077673e-21 0.00000000e+00)	(-4.58714868e-02 -1.21077673e-21 0.00000000e+00)
34              	bot_wall	(-4.58714889e-02 -1.06967240e-17 0.00000000e+00)	(-4.58714889e-02 -1.06967240e-17 0.00000000e+00)
34.5            	top_wall	(-4.58534726e-02 -1.20383227e-21 0.00000000e+00)	(-4.58534726e-02 -1.20383227e-21 0.00000000e+00)
34.5            	bot_wall	(-4.58534747e-02 -1.12163793e-17 0.00000000e+00)	(-4.58534747e-02 -1.12163793e-17 0.00000000e+00)
35              	top_wall	(-4.58366550e-02 -1.19752097e-21 0.00000000e+00)	(-4.58366550e-02 -1.19752097e-21 0.00000000e+00)
35              	bot_wall	(-4.58366571e-02 -9.36304097e-18 0.00000000e+00)	(-4.58366571e-02 -9.36304097e-18 0.00000000e+00)
35.5            	top_wall	(-4.58209591e-02 -1.19188666e-21 0.00000000e+00)	(-4.58209591e-02 -1.19188666e-21 0.00000000e+00)
35.5            	bot_wall	(-4.58209612e-02 -1.00915436e-17 0.00000000e+00)	(-4.58209612e-02 -1.00915436e-17 0.00000000e+00)
36              	top_wall	(-4.58063112e-02 -1.18695435e-21 0.00000000e+00)	(-4.58063112e-02 -1.18695435e-21 0.00000000e+00)
36              	bot_wall	(-4.58063133e-02 -5.91720955e-18 0.00000000e+00)	(-4.58063133e-02 -5.91720955e-18 0.00000000e+00)
36.5            	top_wall	(-4.57926339e-02 -1.18272153e-21 0.00000000e+00)	(-4.57926339e-02 -1.18272153e-21 0.00000000e+00)
36.5            	bot_wall	(-4.57926360e-02 -5.25576267e-18 0.00000000e+00)	(-4.57926360e-02 -5.25576267e-18 0.00000000e+00)
37              	top_wall	(-4.57798762e-02 -1.17916801e-21 0.00000000e+00)	(-4.57798762e-02 -1.17916801e-21 0.00000000e+00)
37              	bot_wall	(-4.57798783e-02 -8.13886417e-18 0.00000000e+00)	(-4.57798783e-02 -8.13886417e-18 0.00000000e+00)
37.5            	top_wall	(-4.57679625e-02 -1.17626861e-21 0.00000000e+00)	(-4.57679625e-02 -1.17626861e-21 0.00000000e+00)
37.5            	bot_wall	(-4.57679646e-02 -1.60733329e-17 0.00000000e+00)	(-4.57679646e-02 -1.60733329e-17 0.00000000e+00)
38              	top_wall	(-4.57568457e-02 -1.17399447e-21 0.00000000e+00)	(-4.57568457e-02 -1.17399447e-21 0.00000000e+00)
38              	bot_wall	(-4.57568478e-02 -5.78358750e-18 0.00000000e+00)	(-4.57568478e-02 -5.78358750e-18 0.00000000e+00)
38.5            	top_wall	(-4.57464688e-02 -1.17228166e-21 0.00000000e+00)	(-4.57464688e-02 -1.17228166e-21 0.00000000e+00)
38.5            	bot_wall	(-4.57464708e-02 -7.34611395e-18 0.00000000e+00)	(-4.57464708e-02 -7.34611395e-18 0.00000000e+00)
39              	top_wall	(-4.57367781e-02 -1.17106670e-21 0.00000000e+00)	(-4.57367781e-02 -1.17106670e-21 0.00000000e+00)
39              	bot_wall	(-4.57367802e-02 2.05297389e-18 0.00000000e+00)	(-4.57367802e-02 2.05297389e-18 0.00000000e+00)
39.5            	top_wall	(-4.57277430e-02 -1.17025292e-21 0.00000000e+00)	(-4.57277430e-02 -1.17025292e-21 0.00000000e+00)
39.5            	bot_wall	(-4.57277451e-02 -5.21181383e-18 0.00000000e+00)	(-4.57277451e-02 -5.21181383e-18 0.00000000e+00)
40              	top_wall	(-4.57193019e-02 -1.16973475e-21 0.00000000e+00)	(-4.57193019e-02 -1.16973475e-21 0.00000000e+00)
40              	bot_wall	(-4.57193039e-02 -8.69891545e-18 0.00000000e+00)	(-4.57193039e-02 -8.69891545e-18 0.00000000e+00)
40.5            	top_wall	(-4.57114283e-02 -1.16939522e-21 0.00000000e+00)	(-4.57114283e-02 -1.16939522e-21 0.00000000e+00)
40.5            	bot_wall	(-4.57114303e-02 1.34048222e-18 0.00000000e+00)	(-4.57114303e-02 1.34048222e-18 0.00000000e+00)
41              	top_wall	(-4.57040762e-02 -1.16908501e-21 0.00000000e+00)	(-4.57040762e-02 -1.16908501e-21 0.00000000e+00)
41              	bot_wall	(-4.57040782e-02 6.73567408e-18 0.00000000e+00)	(-4.57040782e-02 6.73567408e-18 0.00000000e+00)
41.5            	top_wall	(-4.56972132e-02 -1.16864681e-21 0.00000000e+00)	(-4.56972132e-02 -1.16864681e-21 0.00000000e+00)
41.5            	bot_wall	(-4.56972152e-02 8.06121992e-18 0.00000000e+00)	(-4.56972152e-02 8.06121992e-18 0.00000000e+00)
42              	top_wall	(-4.56908108e-02 -1.16790510e-21 0.00000000e+00)	(-4.56908108e-02 -1.16790510e-21 0.00000000e+00)
42              	bot_wall	(-4.56908128e-02 4.84745715e-18 0.00000000e+00)	(-4.56908128e-02 4.84745715e-18 0.00000000e+00)
42.5            	top_wall	(-4.56848293e-02 -1.16668192e-21 0.00000000e+00)	(-4.56848293e-02 -1.16668192e-21 0.00000000e+00)
42.5            	bot_wall	(-4.56848313e-02 4.38012508e-18 0.00000000e+00)	(-4.56848313e-02 4.38012508e-18 0.00000000e+00)
43              	top_wall	(-4.56792529e-02 -1.16480921e-21 0.00000000e+00)	(-4.56792529e-02 -1.16480921e-21 0.00000000e+00)
43              	bot_wall	(-4.56792549e-02 8.37392718e-18 0.00000000e+00)	(-4.56792549e-02 8.37392718e-18 0.00000000e+00)
43.5            	top_wall	(-4.56740434e-02 -1.16211162e-21 0.00000000e+00)	(-4.56740434e-02 -1.16211162e-21 0.00000000e+00)
43.5            	bot_wall	(-4.56740454e-02 9.49176795e-18 0.00000000e+00)	(-4.56740454e-02 9.49176795e-18 0.00000000e+00)
44              	top_wall	(-4.56691820e-02 -1.15843495e-21 0.00000000e+00)	(-4.56691820e-02 -1.15843495e-21 0.00000000e+00)
44              	bot_wall	(-4.56691840e-02 -2.17302015e-18 0.00000000e+00)	(-4.56691840e-02 -2.17302015e-18 0.00000000e+00)
44.5            	top_wall	(-4.56646458e-02 -1.15363256e-21 0.00000000e+00)	(-4.56646458e-02 -1.15363256e-21 0.00000000e+00)
44.5            	bot_wall	(-4.56646478e-02 2.00281938e-18 0.00000000e+00)	(-4.56646478e-02 2.00281938e-18 0.00000000e+00)
45              	top_wall	(-4.56604066e-02 -1.14758206e-21 0.00000000e+00)	(-4.56604066e-02 -1.14758206e-21 0.00000000e+00)
45              	bot_wall	(-4.56604086e-02 2.12110983e-18 0.00000000e+00)	(-4.56604086e-02 2.12110983e-18 0.00000000e+00)
45.5            	top_wall	(-4.56564576e-02 -1.14016360e-21 0.00000000e+00)	(-4.56564576e-02 -1.14016360e-21 0.00000000e+00)
45.5            	bot_wall	(-4.56564595e-02 8.62785943e-19 0.00000000e+00)	(-4.56564595e-02 8.62785943e-19 0.00000000e+00)
46              	top_wall	(-4.56527659e-02 -1.13127937e-21 0.00000000e+00)	(-4.56527659e-02 -1.13127937e-21 0.00000000e+00)
46              	bot_wall	(-4.56527678e-02 1.03144513e-17 0.00000000e+00)	(-4.56527678e-02 1.03144513e-17 0.00000000e+00)
46.5            	top_wall	(-4.56493224e-02 -1.12083745e-21 0.00000000e+00)	(-4.56493224e-02 -1.12083745e-21 0.00000000e+00)
46.5            	bot_wall	(-4.56493243e-02 1.74428847e-18 0.00000000e+00)	(-4.56493243e-02 1.74428847e-18 0.00000000e+00)
47              	top_wall	(-4.56461084e-02 -1.10875849e-21 0.00000000e+00)	(-4.56461084e-02 -1.10875849e-21 0.00000000e+00)
47              	bot_wall	(-4.56461103e-02 6.62072484e-18 0.00000000e+00)	(-4.56461103e-02 6.62072484e-18 0.00000000e+00)
47.5            	top_wall	(-4.56431035e-02 -1.09495547e-21 0.00000000e+00)	(-4.56431035e-02 -1.09495547e-21 0.00000000e+00)
47.5            	bot_wall	(-4.56431054e-02 -1.19022780e-17 0.00000000e+00)	(-4.56431054e-02 -1.19022780e-17 0.00000000e+00)
48              	top_wall	(-4.56403073e-02 -1.07934367e-21 0.00000000e+00)	(-4.56403073e-02 -1.07934367e-21 0.00000000e+00)
48              	bot_wall	(-4.56403091e-02 2.20066682e-18 0.00000000e+00)	(-4.56403091e-02 2.20066682e-18 0.00000000e+00)
48.5            	top_wall	(-4.56376910e-02 -1.06184309e-21 0.00000000e+00)	(-4.56376910e-02 -1.06184309e-21 0.00000000e+00)
48.5            	bot_wall	(-4.56376928e-02 -2.25042967e-18 0.00000000e+00)	(-4.56376928e-02 -2.25042967e-18 0.00000000e+00)
49              	top_wall	(-4.56352517e-02 -1.04237984e-21 0.00000000e+00)	(-4.56352517e-02 -1.04237984e-21 0.00000000e+00)
49              	bot_wall	(-4.56352536e-02 -4.90513290e-19 0.00000000e+00)	(-4.56352536e-02 -4.90513290e-19 0.00000000e+00)
49.5            	top_wall	(-4.56329747e-02 -1.02087932e-21 0.00000000e+00)	(-4.56329747e-02 -1.02087932e-21 0.00000000e+00)
49.5            	bot_wall	(-4.56329765e-02 5.50147016e-18 0.00000000e+00)	(-4.56329765e-02 5.50147016e-18 0.00000000e+00)
50              	top_wall	(-4.56308444e-02 -9.97278782e-22 0.00000000e+00)	(-4.56308444e-02 -9.97278782e-22 0.00000000e+00)
50              	bot_wall	(-4.56308462e-02 3.24523204e-18 0.00000000e+00)	(-4.56308462e-02 3.24523204e-18 0.00000000e+00)
50.5            	top_wall	(-4.56288646e-02 -9.71528533e-22 0.00000000e+00)	(-4.56288646e-02 -9.71528533e-22 0.00000000e+00)
50.5            	bot_wall	(-4.56288664e-02 3.84083894e-18 0.00000000e+00)	(-4.56288664e-02 3.84083894e-18 0.00000000e+00)
51              	top_wall	(-4.56270104e-02 -9.43587342e-22 0.00000000e+00)	(-4.56270104e-02 -9.43587342e-22 0.00000000e+00)
51              	bot_wall	(-4.56270122e-02 -2.59649113e-18 0.00000000e+00)	(-4.56270122e-02 -2.59649113e-18 0.00000000e+00)
51.5            	top_wall	(-4.56252823e-02 -9.13439448e-22 0.00000000e+00)	(-4.56252823e-02 -9.13439448e-22 0.00000000e+00)
51.5            	bot_wall	(-4.56252841e-02 1.25784041e-17 0.00000000e+00)	(-4.56252841e-02 1.25784041e-17 0.00000000e+00)
52              	top_wall	(-4.56236693e-02 -8.81071715e-22 0.00000000e+00)	(-4.56236693e-02 -8.81071715e-22 0.00000000e+00)
52              	bot_wall	(-4.56236710e-02 9.88729813e-18 0.00000000e+00)	(-4.56236710e-02 9.88729813e-18 0.00000000e+00)
52.5            	top_wall	(-4.56221590e-02 -8.46488339e-22 0.00000000e+00)	(-4.56221590e-02 -8.46488339e-22 0.00000000e+00)
52.5            	bot_wall	(-4.56221607e-02 1.23385269e-17 0.00000000e+00)	(-4.56221607e-02 1.23385269e-17 0.00000000e+00)
53              	top_wall	(-4.56207572e-02 -8.09697602e-22 0.00000000e+00)	(-4.56207572e-02 -8.09697602e-22 0.00000000e+00)
53              	bot_wall	(-4.56207589e-02 1.64025334e-19 0.00000000e+00)	(-4.56207589e-02 1.64025334e-19 0.00000000e+00)
53.5            	top_wall	(-4.56194433e-02 -7.70715101e-22 0.00000000e+00)	(-4.56194433e-02 -7.70715101e-22 0.00000000e+00)
53.5            	bot_wall	(-4.56194450e-02 7.92649684e-18 0.00000000e+00)	(-4.56194450e-02 7.92649684e-18 0.00000000e+00)
54              	top_wall	(-4.56182182e-02 -7.29571324e-22 0.00000000e+00)	(-4.56182182e-02 -7.29571324e-22 0.00000000e+00)
54              	bot_wall	(-4.56182199e-02 -1.21281940e-18 0.00000000e+00)	(-4.56182199e-02 -1.21281940e-18 0.00000000e+00)
54.5            	top_wall	(-4.56170762e-02 -6.86301575e-22 0.00000000e+00)	(-4.56170762e-02 -6.86301575e-22 0.00000000e+00)
54.5            	bot_wall	(-4.56170779e-02 -2.99570273e-18 0.00000000e+00)	(-4.56170779e-02 -2.99570273e-18 0.00000000e+00)
55              	top_wall	(-4.56160056e-02 -6.40946760e-22 0.00000000e+00)	(-4.56160056e-02 -6.40946760e-22 0.00000000e+00)
55              	bot_wall	(-4.56160072e-02 -2.35648064e-18 0.00000000e+00)	(-4.56160072e-02 -2.35648064e-18 0.00000000e+00)
55.5            	top_wall	(-4.56150125e-02 -5.93566153e-22 0.00000000e+00)	(-4.56150125e-02 -5.93566153e-22 0.00000000e+00)
55.5            	bot_wall	(-4.56150141e-02 2.91193438e-18 0.00000000e+00)	(-4.56150141e-02 2.91193438e-18 0.00000000e+00)
56              	top_wall	(-4.56140820e-02 -5.44224448e-22 0.00000000e+00)	(-4.56140820e-02 -5.44224448e-22 0.00000000e+00)
56              	bot_wall	(-4.56140836e-02 4.60574844e-18 0.00000000e+00)	(-4.56140836e-02 4.60574844e-18 0.00000000e+00)
56.5            	top_wall	(-4.56132118e-02 -4.92993835e-22 0.00000000e+00)	(-4.56132118e-02 -4.92993835e-22 0.00000000e+00)
56.5            	bot_wall	(-4.56132134e-02 -7.30893186e-18 0.00000000e+00)	(-4.56132134e-02 -7.30893186e-18 0.00000000e+00)
57              	top_wall	(-4.56124046e-02 -4.39953169e-22 0.00000000e+00)	(-4.56124046e-02 -4.39953169e-22 0.00000000e+00)
57              	bot_wall	(-4.56124062e-02 -7.27934792e-18 0.00000000e+00)	(-4.56124062e-02 -7.27934792e-18 0.00000000e+00)
57.5            	top_wall	(-4.56116463e-02 -3.85185023e-22 0.00000000e+00)	(-4.56116463e-02 -3.85185023e-22 0.00000000e+00)
57.5            	bot_wall	(-4.56116478e-02 4.70502449e-18 0.00000000e+00)	(-4.56116478e-02 4.70502449e-18 0.00000000e+00)
58              	top_wall	(-4.56109411e-02 -3.28775640e-22 0.00000000e+00)	(-4.56109411e-02 -3.28775640e-22 0.00000000e+00)
58              	bot_wall	(-4.56109426e-02 -4.51302270e-18 0.00000000e+00)	(-4.56109426e-02 -4.51302270e-18 0.00000000e+00)
58.5            	top_wall	(-4.56102833e-02 -2.70814111e-22 0.00000000e+00)	(-4.56102833e-02 -2.70814111e-22 0.00000000e+00)
58.5            	bot_wall	(-4.56102848e-02 4.14492877e-18 0.00000000e+00)	(-4.56102848e-02 4.14492877e-18 0.00000000e+00)
59              	top_wall	(-4.56096649e-02 -2.11382710e-22 0.00000000e+00)	(-4.56096649e-02 -2.11382710e-22 0.00000000e+00)
59              	bot_wall	(-4.56096664e-02 2.12604601e-18 0.00000000e+00)	(-4.56096664e-02 2.12604601e-18 0.00000000e+00)
59.5            	top_wall	(-4.56090937e-02 -1.50565565e-22 0.00000000e+00)	(-4.56090937e-02 -1.50565565e-22 0.00000000e+00)
59.5            	bot_wall	(-4.56090951e-02 -2.96157450e-18 0.00000000e+00)	(-4.56090951e-02 -2.96157450e-18 0.00000000e+00)
60              	top_wall	(-4.56085578e-02 -8.84490618e-23 0.00000000e+00)	(-4.56085578e-02 -8.84490618e-23 0.00000000e+00)
60              	bot_wall	(-4.56085592e-02 1.72753531e-17 0.00000000e+00)	(-4.56085592e-02 1.72753531e-17 0.00000000e+00)
60.5            	top_wall	(-4.56080533e-02 -2.51095981e-23 0.00000000e+00)	(-4.56080533e-02 -2.51095981e-23 0.00000000e+00)
60.5            	bot_wall	(-4.56080547e-02 9.58102630e-18 0.00000000e+00)	(-4.56080547e-02 9.58102630e-18 0.00000000e+00)